                         Program Version 5.0.3 -  RELEASE  -
|  1> !PAL8
|  2> !RI-DSD-PBEP86 D3BJ aug-cc-pVTZ aug-cc-pVTZ/C TightSCF
|  3> %maxcore 5000
|  4>
|  5> * xyz -1 1
|  6> C -1.345161564  0.7498587575 -0.9312485696
|  7> C -2.5292929964  0.8888147771 -1.651520572
|  8> H -3.4663212047  0.9412018551 -1.1037201778
|  9> C -2.4919021744  0.9842378025 -3.0437989946
| 10> H -3.4173849179  1.0998643444 -3.6039381437
| 11> C -1.2715120688  0.939202932 -3.7175104963
| 12> H -1.2421230759  1.0153151097 -4.8019826851
| 13> C -0.0857983677  0.8047835666 -2.9906343026
| 14> H  0.8690203062  0.7772511475 -3.5111537185
| 15> C -0.1221227126  0.711165243 -1.6012446257
| 16> H  0.7879373322  0.6157615426 -1.0150904402
| 17> S -1.3821086394  0.5241456763  0.8785241699
| 18> O -0.1709994275  1.2422447389  1.3193047839
| 19> O -2.6903208801  1.1249989421  1.2483779621
| 20> N -1.2521358907 -1.0095256394  1.168422721
| 21> H -2.1956327184 -1.3956827958  1.0928010893
| 22> *
| 23>
| 24>
| 25>
| 26>                          ****END OF INPUT****

CARTESIAN COORDINATES (ANGSTROEM)
---------------------------------
  C     -1.345162    0.749859   -0.931249
  C     -2.529293    0.888815   -1.651521
  H     -3.466321    0.941202   -1.103720
  C     -2.491902    0.984238   -3.043799
  H     -3.417385    1.099864   -3.603938
  C     -1.271512    0.939203   -3.717510
  H     -1.242123    1.015315   -4.801983
  C     -0.085798    0.804784   -2.990634
  H      0.869020    0.777251   -3.511154
  C     -0.122123    0.711165   -1.601245
  H      0.787937    0.615762   -1.015090
  S     -1.382109    0.524146    0.878524
  O     -0.170999    1.242245    1.319305
  O     -2.690321    1.124999    1.248378
  N     -1.252136   -1.009526    1.168423
  H     -2.195633   -1.395683    1.092801

 Total Charge           Charge          ....   -1
 Multiplicity           Mult            ....    1
 Number of Electrons    NEL             ....   82
 Basis Dimension        Dim             ....  602

ORBITAL ENERGIES
----------------

  NO   OCC          E(Eh)            E(eV)
   0   2.0000     -90.835909     -2471.7708
   1   2.0000     -19.818554      -539.2903
   2   2.0000     -19.816787      -539.2422
   3   2.0000     -14.876740      -404.8167
   4   2.0000     -10.728771      -291.9447
   5   2.0000     -10.726864      -291.8928
   6   2.0000     -10.726220      -291.8753
   7   2.0000     -10.720980      -291.7327
   8   2.0000     -10.717261      -291.6315
   9   2.0000     -10.717016      -291.6248
  10   2.0000      -8.577814      -233.4142
  11   2.0000      -6.364041      -173.1743
  12   2.0000      -6.362332      -173.1279
  13   2.0000      -6.361378      -173.1019
  14   2.0000      -1.126786       -30.6614
  15   2.0000      -1.011660       -27.5287
  16   2.0000      -0.930392       -25.3172
  17   2.0000      -0.869385       -23.6572
  18   2.0000      -0.804713       -21.8973
  19   2.0000      -0.803603       -21.8672
  20   2.0000      -0.644442       -17.5362
  21   2.0000      -0.631769       -17.1913
  22   2.0000      -0.564209       -15.3529
  23   2.0000      -0.514868       -14.0103
  24   2.0000      -0.457624       -12.4526
  25   2.0000      -0.448770       -12.2117
  26   2.0000      -0.431159       -11.7324
  27   2.0000      -0.415210       -11.2984
  28   2.0000      -0.412865       -11.2346
  29   2.0000      -0.381092       -10.3700
  30   2.0000      -0.348041        -9.4707
  31   2.0000      -0.343560        -9.3487
  32   2.0000      -0.322996        -8.7892
  33   2.0000      -0.284506        -7.7418
  34   2.0000      -0.251667        -6.8482
  35   2.0000      -0.237612        -6.4658
  36   2.0000      -0.221218        -6.0196
  37   2.0000      -0.198208        -5.3935
  38   2.0000      -0.197240        -5.3672
  39   2.0000      -0.186103        -5.0641
  40   2.0000      -0.146201        -3.9783
  41   0.0000       0.090622         2.4659
  42   0.0000       0.100098         2.7238
  43   0.0000       0.110415         3.0046
  44   0.0000       0.129543         3.5250
  45   0.0000       0.134419         3.6577

MULLIKEN ATOMIC CHARGES
-----------------------
   0 C :    1.006644
   1 C :   -0.864576
   2 H :    0.494009
   3 C :   -0.469483
   4 H :    0.377336
   5 C :   -0.520566
   6 H :    0.540660
   7 C :   -0.533725
   8 H :    0.375607
   9 C :   -0.879875
  10 H :    0.526178
  11 S :    1.935409
  12 O :   -1.010825
  13 O :   -1.010809
  14 N :   -1.082838
  15 H :    0.116855
Sum of atomic charges:   -1.0000000

LOEWDIN ATOMIC CHARGES
----------------------
   0 C :   -0.249736
   1 C :    0.138440
   2 H :   -0.215584
   3 C :    0.163156
   4 H :   -0.195171
   5 C :    0.156548
   6 H :   -0.197990
   7 C :    0.165832
   8 H :   -0.194304
   9 C :    0.140487
  10 H :   -0.200262
  11 S :   -0.141584
  12 O :   -0.020298
  13 O :   -0.022092
  14 N :    0.271389
  15 H :   -0.598832

  Mayer bond orders larger than 0.100000
B(  0-C ,  1-C ) :   0.6261 B(  0-C ,  3-C ) :  -0.1232 B(  0-C ,  5-C ) :  -0.1106
B(  0-C ,  9-C ) :   0.8656 B(  0-C , 11-S ) :   0.9007 B(  0-C , 14-N ) :   0.1963
B(  1-C ,  2-H ) :   0.6175 B(  1-C ,  3-C ) :   1.0306 B(  1-C ,  5-C ) :   0.2428
B(  1-C ,  7-C ) :  -0.1005 B(  1-C ,  9-C ) :   0.3491 B(  3-C ,  4-H ) :   0.9597
B(  3-C ,  5-C ) :   1.2037 B(  3-C ,  7-C ) :  -0.1020 B(  5-C ,  6-H ) :   0.6288
B(  5-C ,  7-C ) :   1.1863 B(  5-C ,  9-C ) :   0.1910 B(  7-C ,  8-H ) :   0.9723
B(  7-C ,  9-C ) :   1.1210 B(  9-C , 10-H ) :   0.5784 B( 11-S , 12-O ) :   1.2369
B( 11-S , 13-O ) :   1.1692 B( 11-S , 14-N ) :   1.3154 B( 14-N , 15-H ) :   0.9344

MP2 TOTAL ENERGY:     -834.783343823 Eh
Dispersion correction           -0.012110398
FINAL SINGLE POINT ENERGY      -834.795454221400

DIPOLE MOMENT
-------------
                                X             Y             Z
Electronic contribution:      0.17004       1.09713       5.45331
Nuclear contribution   :     -0.53935      -0.89523      -8.70268
                        -----------------------------------------
Total Dipole Moment    :     -0.36931       0.20190      -3.24937
                        -----------------------------------------
Magnitude (a.u.)       :      3.27652
Magnitude (Debye)      :      8.32824

Rotational constants in cm-1:     0.088269     0.027811     0.024234
Rotational constants in MHz :  2646.226437   833.739649   726.504293

                             ****ORCA TERMINATED NORMALLY****
TOTAL RUN TIME: 0 days 0 hours 1 minutes 43 seconds 750 msec
