 Gaussian 16, Revision C.01,
 Gaussian 16:  ES64L-G16RevC.01  3-Jul-2019

 ----------------------------------------------------------------------
 #m062X/gen 6D OPT Freq=Noraman INT(grid=ultrafine) SCRF=(SMD,Solvent=h
 2o)
 ----------------------------------------------------------------------

 -----
 a1 b1
 -----
 Symbolic Z-matrix:
 Charge = -1 Multiplicity = 1

 SCF Done:  E(RM062X) =  -835.521879443     A.U. after   15 cycles
 Optimization completed.
    -- Stationary point found.
 Normal termination of Gaussian 16 at Thu May 19 13:18:56 2022.

 ------------------------------------------------------------------
 #N Geom=AllCheck Guess=TCheck SCRF=Check GenChk RM062X/ChkBas Freq
 ------------------------------------------------------------------

 Structure from the checkpoint file:  "/jobfs/40638752.gadi-pbs/Gau-2182986.chk"
 -----
 a1 b1
 -----
 Charge = -1 Multiplicity = 1

                         Standard orientation:
 ---------------------------------------------------------------------
 Center     Atomic      Atomic             Coordinates (Angstroms)
 Number     Number       Type             X           Y           Z
 ---------------------------------------------------------------------
      1          6           0        0.281498    0.016075   -0.050978
      2          6           0        0.957600   -1.204640   -0.046386
      3          1           0        0.403175   -2.138696   -0.083245
      4          6           0        2.350322   -1.214867   -0.001610
      5          1           0        2.882003   -2.161789   -0.002678
      6          6           0        3.059058   -0.012268    0.041240
      7          1           0        4.144532   -0.023313    0.074516
      8          6           0        2.373683    1.202386    0.038863
      9          1           0        2.923061    2.138729    0.068776
     10          6           0        0.978785    1.221099   -0.004587
     11          1           0        0.438761    2.162800   -0.008979
     12         16           0       -1.519501    0.013496   -0.014479
     13          8           0       -1.921469    1.385862   -0.426179
     14          8           0       -1.891419   -1.044436   -1.005322
     15          7           0       -2.021826   -0.248945    1.443884
     16          1           0       -1.829314   -1.229164    1.668837
 ---------------------------------------------------------------------

 SCF Done:  E(RM062X) =  -835.521879443     A.U. after    1 cycles

 The electronic state is 1-A.
 Alpha  occ. eigenvalues --  -90.13286 -19.61935 -19.61815 -14.71713 -10.57658
 Alpha  occ. eigenvalues --  -10.56305 -10.56203 -10.55884 -10.55841 -10.55759
 Alpha  occ. eigenvalues --   -8.44189  -6.36434  -6.36336  -6.36254  -1.20577
 Alpha  occ. eigenvalues --   -1.09002  -0.97184  -0.95575  -0.85682  -0.84935
 Alpha  occ. eigenvalues --   -0.72636  -0.69378  -0.65534  -0.60777  -0.56232
 Alpha  occ. eigenvalues --   -0.54451  -0.53325  -0.51422  -0.50813  -0.49202
 Alpha  occ. eigenvalues --   -0.45101  -0.43017  -0.41866  -0.40647  -0.39271
 Alpha  occ. eigenvalues --   -0.37254  -0.36025  -0.33056  -0.32246  -0.31398
 Alpha  occ. eigenvalues --   -0.28465
 Alpha virt. eigenvalues --    0.00621   0.01469   0.02088   0.04060   0.04381
 Alpha virt. eigenvalues --    0.04878   0.05738   0.05970   0.06988   0.08515
 Alpha virt. eigenvalues --    0.08585   0.08731   0.09907   0.11033   0.12368

 Mulliken charges:
               1
     1  C   -0.855840
     2  C    0.338398
     3  H    0.260320
     4  C   -0.131776
     5  H    0.251558
     6  C   -0.255865
     7  H    0.249472
     8  C   -0.187520
     9  H    0.251152
    10  C   -0.451017
    11  H    0.262363
    12  S    1.380844
    13  O   -0.804440
    14  O   -0.739645
    15  N   -0.970508
    16  H    0.402504
 Sum of Mulliken charges =  -1.00000

 Dipole moment (field-independent basis, Debye):
    X=             13.4475    Y=             -2.1270    Z=              0.9006  Tot=             13.6445
 Quadrupole moment (field-independent basis, Debye-Ang):
   XX=            -87.9727   YY=            -68.0236   ZZ=            -81.0721
   XY=              3.8118   XZ=             -0.2608   YZ=             -3.9627

  Exact polarizability:     184.452       1.748     161.466      -3.474       1.037     108.798
 Approx polarizability:     148.560       0.766     143.767      -1.900       1.105      96.277

                      1                      2                      3
                      A                      A                      A
 Frequencies --     31.2454               127.2998               194.2076
 Red. masses --      5.0692                 5.2997                 5.8443
 Frc consts  --      0.0029                 0.0506                 0.1299
 IR Inten    --      0.5658                 1.2056                 7.8335

                      4                      5                      6
                      A                      A                      A
 Frequencies --    272.6161               309.9860               330.8975
 Red. masses --      2.7384                 8.5106                 3.6840
 Frc consts  --      0.1199                 0.4818                 0.2377
 IR Inten    --     25.9019                28.4916                39.5657

                      7                      8                      9
                      A                      A                      A
 Frequencies --    409.5028               432.6092               477.8093
 Red. masses --      2.8744                 2.6708                 4.1985
 Frc consts  --      0.2840                 0.2945                 0.5648
 IR Inten    --      0.2861                93.9640                28.0759

                     10                     11                     12
                      A                      A                      A
 Frequencies --    491.2281               546.3243               582.7422
 Red. masses --      3.5065                 5.0443                10.6116
 Frc consts  --      0.4985                 0.8871                 2.1232
 IR Inten    --    131.1108               124.8151               227.1596

                     13                     14                     15
                      A                      A                      A
 Frequencies --    622.7641               709.9823               722.1584
 Red. masses --      6.3924                 1.9603                 6.1761
 Frc consts  --      1.4607                 0.5822                 1.8977
 IR Inten    --      0.1529                91.5845                48.8265

                     16                     17                     18
                      A                      A                      A
 Frequencies --    779.4477               873.4952               953.8430
 Red. masses --      1.7598                 1.2482                 3.9054
 Frc consts  --      0.6299                 0.5611                 2.0935
 IR Inten    --     46.6476                 0.0214               261.3553

                     19                     20                     21
                      A                      A                      A
 Frequencies --    957.1174              1013.2231              1015.2978
 Red. masses --      1.8357                 1.3793                 6.2504
 Frc consts  --      0.9908                 0.8343                 3.7961
 IR Inten    --     89.6759                 0.0231                25.0899

                     22                     23                     24
                      A                      A                      A
 Frequencies --   1034.3994              1056.6086              1065.1722
 Red. masses --      1.3126                 2.6508                 4.6359
 Frc consts  --      0.8275                 1.7436                 3.0990
 IR Inten    --      0.1525                65.2409               639.3173

                     25                     26                     27
                      A                      A                      A
 Frequencies --   1107.4534              1112.1872              1138.8006
 Red. masses --      1.4925                 2.4088                 3.0275
 Frc consts  --      1.0785                 1.7555                 2.3133
 IR Inten    --     35.4588               288.9844               106.2181

                     28                     29                     30
                      A                      A                      A
 Frequencies --   1170.7950              1184.2136              1193.4794
 Red. masses --      1.1072                 2.3944                 1.1938
 Frc consts  --      0.8942                 1.9784                 1.0019
 IR Inten    --      6.0125               372.2796                24.6652

                     31                     32                     33
                      A                      A                      A
 Frequencies --   1328.8142              1346.6173              1487.4884
 Red. masses --      1.9513                 2.6293                 2.3014
 Frc consts  --      2.0300                 2.8092                 3.0002
 IR Inten    --      1.0892                 1.5708                26.6392

                     34                     35                     36
                      A                      A                      A
 Frequencies --   1526.1619              1665.2344              1668.7570
 Red. masses --      2.2295                 6.3967                 6.0807
 Frc consts  --      3.0595                10.4509                 9.9768
 IR Inten    --      8.8416                 0.0709                 0.7606

                     37                     38                     39
                      A                      A                      A
 Frequencies --   3225.1844              3230.4164              3237.9878
 Red. masses --      1.0874                 1.0893                 1.0929
 Frc consts  --      6.6641                 6.6978                 6.7514
 IR Inten    --      0.0719                 1.1571                11.6408

                     40                     41                     42
                      A                      A                      A
 Frequencies --   3245.8844              3251.0541              3501.0666
 Red. masses --      1.0955                 1.0970                 1.0733
 Frc consts  --      6.8000                 6.8316                 7.7513
 IR Inten    --     11.2443                12.1038                35.4266

 - Thermochemistry -
 -------------------
 Temperature   298.150 Kelvin.  Pressure   1.00000 Atm.
 Atom     1 has atomic number  6 and mass  12.00000

 Molecular mass:   156.01193 amu.
 Principal axes and moments of inertia in atomic units:
                           1         2         3
     Eigenvalues --   681.073732162.834102478.75695
           X            0.99997   0.00510  -0.00495
           Y           -0.00520   0.99979  -0.01977
           Z            0.00485   0.01979   0.99979
 This molecule is an asymmetric top.
 Rotational symmetry number  1.
 Warning -- assumption of classical behavior for rotation
           may cause significant error
 Rotational temperatures (Kelvin)      0.12717     0.04005     0.03494
 Rotational constants (GHZ):           2.64985     0.83443     0.72808
 Zero-point vibrational energy     302844.1 (Joules/Mol)
                                   72.38147 (Kcal/Mol)
 Warning -- explicit consideration of  12 degrees of freedom as
           vibrations may cause significant error
 Vibrational temperatures:     44.96   183.16   279.42   392.23   446.00
          (Kelvin)            476.09   589.18   622.43   687.46   706.77
                              786.04   838.44   896.02  1021.51  1039.02
                             1121.45  1256.76  1372.37  1377.08  1457.80
                             1460.79  1488.27  1520.22  1532.55  1593.38
                             1600.19  1638.48  1684.51  1703.82  1717.15
                             1911.87  1937.48  2140.16  2195.81  2395.90
                             2400.97  4640.32  4647.85  4658.74  4670.10
                             4677.54  5037.25

 Zero-point correction=                           0.115347 (Hartree/Particle)
 Thermal correction to Energy=                    0.123876
 Thermal correction to Enthalpy=                  0.124821
 Thermal correction to Gibbs Free Energy=         0.080902
 Sum of electronic and zero-point Energies=           -835.406532
 Sum of electronic and thermal Energies=              -835.398003
 Sum of electronic and thermal Enthalpies=            -835.397059
 Sum of electronic and thermal Free Energies=         -835.440977

                     E (Thermal)             CV                S
                      KCal/Mol        Cal/Mol-Kelvin    Cal/Mol-Kelvin
 Total                   77.734             32.633             92.434
 Electronic               0.000              0.000              0.000
 Translational            0.889              2.981             41.044
 Rotational               0.889              2.981             29.680
 Vibrational             75.956             26.672             21.710
 Vibration     1          0.594              1.983              5.749
 Vibration     2          0.611              1.926              2.986
 Vibration     3          0.635              1.848              2.187
 Vibration     4          0.676              1.724              1.580
 Vibration     5          0.699              1.655              1.362
 Vibration     6          0.713              1.614              1.256
 Vibration     7          0.774              1.450              0.928
 Vibration     8          0.793              1.399              0.850
 Vibration     9          0.834              1.299              0.716
 Vibration    10          0.847              1.269              0.680
 Vibration    11          0.902              1.148              0.552
 Vibration    12          0.940              1.069              0.480

 Optimization completed.
    -- Stationary point found.
 Normal termination of Gaussian 16 at Thu May 19 13:21:30 2022.
