 Gaussian 16, Revision C.01,
 Gaussian 16:  ES64L-G16RevC.01  3-Jul-2019

 -----------------------------------------------------
 #m062X/gen 6D OPT Freq=noraman SCRF=(SMD,Solvent=h2o)
 -----------------------------------------------------

 -----------------
 A.10.smd.a2b3.smd
 -----------------
 Symbolic Z-matrix:
 Charge = -1 Multiplicity = 1

 SCF Done:  E(RM062X) =  -930.145873115     A.U. after   15 cycles
 SCF Done:  E(RM062X) =  -930.150576409     A.U. after   13 cycles
 SCF Done:  E(RM062X) =  -930.151133780     A.U. after   13 cycles
 SCF Done:  E(RM062X) =  -930.151409245     A.U. after   13 cycles
 SCF Done:  E(RM062X) =  -930.151564973     A.U. after   14 cycles
 SCF Done:  E(RM062X) =  -930.151614120     A.U. after   13 cycles
 SCF Done:  E(RM062X) =  -930.151647944     A.U. after   13 cycles
 SCF Done:  E(RM062X) =  -930.151654261     A.U. after   12 cycles
 SCF Done:  E(RM062X) =  -930.151654535     A.U. after   10 cycles
 SCF Done:  E(RM062X) =  -930.151654595     A.U. after   10 cycles
 SCF Done:  E(RM062X) =  -930.151654605     A.U. after    9 cycles
 Optimization completed.
    -- Stationary point found.
 Normal termination of Gaussian 16 at Wed Jun 29 10:39:28 2022.

 ------------------------------------------------------------------
 #N Geom=AllCheck Guess=TCheck SCRF=Check GenChk RM062X/ChkBas Freq
 ------------------------------------------------------------------

 Structure from the checkpoint file:  "/jobfs/48676083.gadi-pbs/Gau-169932.chk"
 -----------------
 A.10.smd.a2b3.smd
 -----------------
 Charge = -1 Multiplicity = 1

                         Standard orientation:
 ---------------------------------------------------------------------
 Center     Atomic      Atomic             Coordinates (Angstroms)
 Number     Number       Type             X           Y           Z
 ---------------------------------------------------------------------
      1          6           0       -0.554928   -0.051810   -0.011784
      2          6           0        0.240658    1.085247    0.062693
      3          1           0       -0.223879    2.066945    0.087356
      4          6           0        1.630893    0.976589    0.096040
      5          1           0        2.231534    1.878592    0.145335
      6          6           0        2.244671   -0.287114    0.069782
      7          7           0        3.616992   -0.436799    0.152462
      8          6           0        1.423356   -1.433788   -0.007878
      9          1           0        1.889213   -2.415936   -0.037836
     10          6           0        0.045072   -1.317046   -0.047342
     11          1           0       -0.568864   -2.211525   -0.111729
     12         16           0       -2.341885    0.080246   -0.003403
     13          8           0       -2.775715   -0.887110   -1.064207
     14          8           0       -2.765451   -0.347050    1.364777
     15          7           0       -2.784417    1.560805   -0.230163
     16          1           0       -2.594139    1.805712   -1.205365
     17          6           0        4.487711    0.690562   -0.137695
     18          1           0        3.949653   -1.323023   -0.211120
     19          1           0        4.409855    1.449045    0.646180
     20          1           0        4.256145    1.163276   -1.102092
     21          1           0        5.517344    0.332373   -0.159843
 ---------------------------------------------------------------------

 SCF Done:  E(RM062X) =  -930.151654605     A.U. after    1 cycles

 The electronic state is 1-A.
 Alpha  occ. eigenvalues --  -90.12928 -19.61432 -19.61420 -14.77157 -14.71492
 Alpha  occ. eigenvalues --  -10.59793 -10.56398 -10.56334 -10.56126 -10.56032
 Alpha  occ. eigenvalues --  -10.55136 -10.54893  -8.43821  -6.36061  -6.35964
 Alpha  occ. eigenvalues --   -6.35896  -1.19983  -1.08253  -1.04417  -0.96359
 Alpha  occ. eigenvalues --   -0.94827  -0.84925  -0.84498  -0.77229  -0.71449
 Alpha  occ. eigenvalues --   -0.68962  -0.65140  -0.60843  -0.58623  -0.54979
 Alpha  occ. eigenvalues --   -0.54429  -0.52137  -0.51448  -0.50990  -0.49076
 Alpha  occ. eigenvalues --   -0.48353  -0.46406  -0.44896  -0.43716  -0.41228
 Alpha  occ. eigenvalues --   -0.40120  -0.39034  -0.38319  -0.35209  -0.34973
 Alpha  occ. eigenvalues --   -0.32738  -0.31284  -0.29562  -0.25478
 Alpha virt. eigenvalues --    0.01694   0.01804   0.02246   0.03129   0.03957
 Alpha virt. eigenvalues --    0.04721   0.05033   0.05216   0.06185   0.06537
 Alpha virt. eigenvalues --    0.07288   0.07781   0.09329   0.09867   0.10654

 Mulliken charges:
               1
     1  C   -1.219513
     2  C   -0.826480
     3  H    0.259367
     4  C    0.733864
     5  H    0.244261
     6  C    0.396777
     7  N   -0.629238
     8  C   -0.600318
     9  H    0.247595
    10  C    0.003508
    11  H    0.258873
    12  S    1.534258
    13  O   -0.722444
    14  O   -0.739149
    15  N   -1.044727
    16  H    0.408658
    17  C   -0.455557
    18  H    0.450164
    19  H    0.237774
    20  H    0.224106
    21  H    0.238222
 Sum of Mulliken charges =  -1.00000

 Dipole moment (field-independent basis, Debye):
    X=             20.3094    Y=              0.0164    Z=             -3.2282  Tot=             20.5644
 Quadrupole moment (field-independent basis, Debye-Ang):
   XX=           -115.4707   YY=            -81.0703   ZZ=            -93.2083
   XY=             -1.2497   XZ=              1.5904   YZ=             -2.8826

  Exact polarizability:     243.017      -4.474     190.366       2.722       1.505     127.485
 Approx polarizability:     188.194      -3.338     165.827       2.425       1.742     112.673

                      1                      2                      3
                      A                      A                      A
 Frequencies --     30.1743                69.2897               124.3428
 Red. masses --      5.1668                 4.4343                 3.6366
 Frc consts  --      0.0028                 0.0125                 0.0331
 IR Inten    --      1.7758                 0.3512                12.9272

                      4                      5                      6
                      A                      A                      A
 Frequencies --    149.1871               196.2944               242.1235
 Red. masses --      5.4290                 2.4482                 5.1282
 Frc consts  --      0.0712                 0.0556                 0.1771
 IR Inten    --      3.7953                18.7815                 7.8707

                      7                      8                      9
                      A                      A                      A
 Frequencies --    266.2500               280.3638               323.1922
 Red. masses --      1.3202                 4.8424                 2.4882
 Frc consts  --      0.0551                 0.2243                 0.1531
 IR Inten    --     23.7264                 5.9347                58.0050

                     10                     11                     12
                      A                      A                      A
 Frequencies --    376.3235               406.0566               420.6757
 Red. masses --      4.7725                 1.8667                 2.9675
 Frc consts  --      0.3982                 0.1813                 0.3094
 IR Inten    --     47.6009               277.7490                13.8316

                     13                     14                     15
                      A                      A                      A
 Frequencies --    455.7109               490.8602               504.8267
 Red. masses --      2.6394                 2.5279                 3.7110
 Frc consts  --      0.3230                 0.3589                 0.5572
 IR Inten    --     46.3029               152.3914               330.4016

                     16                     17                     18
                      A                      A                      A
 Frequencies --    518.2644               547.0376               590.3332
 Red. masses --     10.8874                 2.5701                 3.6157
 Frc consts  --      1.7230                 0.4531                 0.7424
 IR Inten    --     49.7354                71.4185                87.9218

                     19                     20                     21
                      A                      A                      A
 Frequencies --    640.5929               680.5196               730.0484
 Red. masses --      7.0760                 4.6495                 3.7762
 Frc consts  --      1.7108                 1.2686                 1.1858
 IR Inten    --      7.5191               139.2649                 5.2498

                     22                     23                     24
                      A                      A                      A
 Frequencies --    833.0429               840.7075               848.6302
 Red. masses --      3.8221                 1.2857                 1.7463
 Frc consts  --      1.5627                 0.5354                 0.7410
 IR Inten    --      6.3605                 5.6850               118.7040

                     25                     26                     27
                      A                      A                      A
 Frequencies --    957.1665               977.1059               996.2079
 Red. masses --     12.9459                 1.3050                 1.3438
 Frc consts  --      6.9881                 0.7341                 0.7857
 IR Inten    --    397.9810                 0.3804                 0.1964

                     28                     29                     30
                      A                      A                      A
 Frequencies --   1024.0861              1059.1955              1089.6278
 Red. masses --      3.2527                 4.2907                 2.3107
 Frc consts  --      2.0099                 2.8362                 1.6164
 IR Inten    --     34.9212               693.4043                41.5658

                     31                     32                     33
                      A                      A                      A
 Frequencies --   1101.9365              1132.0825              1139.7345
 Red. masses --      4.3417                 1.7141                 1.8791
 Frc consts  --      3.1062                 1.2943                 1.4382
 IR Inten    --    474.9315               108.5889               144.6962

                     34                     35                     36
                      A                      A                      A
 Frequencies --   1159.4134              1165.0074              1191.1658
 Red. masses --      1.3693                 1.9136                 1.6279
 Frc consts  --      1.0845                 1.5303                 1.3609
 IR Inten    --     23.2044               314.7235                22.0540

                     37                     38                     39
                      A                      A                      A
 Frequencies --   1208.9610              1307.9012              1328.6141
 Red. masses --      1.2414                 2.4113                 1.4273
 Frc consts  --      1.0690                 2.4303                 1.4845
 IR Inten    --      2.7478                79.1784                18.4855

                     40                     41                     42
                      A                      A                      A
 Frequencies --   1371.4031              1442.6326              1481.6260
 Red. masses --      4.7554                 2.3551                 1.2175
 Frc consts  --      5.2695                 2.8878                 1.5747
 IR Inten    --    169.8528                16.8477                 6.4459

                     43                     44                     45
                      A                      A                      A
 Frequencies --   1499.8540              1510.4969              1530.9879
 Red. masses --      1.2264                 1.3888                 1.0912
 Frc consts  --      1.6255                 1.8669                 1.5069
 IR Inten    --     24.7000                11.5820                50.2900

                     46                     47                     48
                      A                      A                      A
 Frequencies --   1560.0502              1652.2982              1674.5221
 Red. masses --      2.6699                 5.7762                 6.1244
 Frc consts  --      3.8284                 9.2912                10.1180
 IR Inten    --    315.0014                35.4041               340.3737

                     49                     50                     51
                      A                      A                      A
 Frequencies --   3060.7759              3141.5723              3198.8294
 Red. masses --      1.0475                 1.0925                 1.1012
 Frc consts  --      5.7818                 6.3529                 6.6389
 IR Inten    --     98.6031                45.6562                23.8145

                     52                     53                     54
                      A                      A                      A
 Frequencies --   3216.1199              3234.1315              3235.0157
 Red. masses --      1.0895                 1.0898                 1.0945
 Frc consts  --      6.6397                 6.7158                 6.7486
 IR Inten    --      8.9456                 0.1106                 6.1933

                     55                     56                     57
                      A                      A                      A
 Frequencies --   3253.9161              3507.0371              3596.8332
 Red. masses --      1.0929                 1.0734                 1.0773
 Frc consts  --      6.8180                 7.7785                 8.2113
 IR Inten    --      6.8555                35.2026               100.7554

 - Thermochemistry -
 -------------------
 Temperature   298.150 Kelvin.  Pressure   1.00000 Atm.
 Atom     1 has atomic number  6 and mass  12.00000

 Molecular mass:   185.03847 amu.
 Principal axes and moments of inertia in atomic units:
                           1         2         3
     Eigenvalues --   747.142974379.024594750.28848
           X            0.99999   0.00389  -0.00035
           Y           -0.00390   0.99989  -0.01460
           Z            0.00029   0.01460   0.99989
 This molecule is an asymmetric top.
 Rotational symmetry number  1.
 Warning -- assumption of classical behavior for rotation
           may cause significant error
 Rotational temperatures (Kelvin)      0.11593     0.01978     0.01823
 Rotational constants (GHZ):           2.41552     0.41213     0.37992
 Zero-point vibrational energy     422109.3 (Joules/Mol)
                                  100.88653 (Kcal/Mol)
 Warning -- explicit consideration of  18 degrees of freedom as
           vibrations may cause significant error
 Vibrational temperatures:     43.41    99.69   178.90   214.65   282.42
          (Kelvin)            348.36   383.07   403.38   465.00   541.45
                              584.22   605.26   655.67   706.24   726.33
                              745.67   787.07   849.36   921.67   979.12
                             1050.38  1198.56  1209.59  1220.99  1377.15
                             1405.84  1433.32  1473.43  1523.95  1567.73
                             1585.44  1628.81  1639.82  1668.14  1676.19
                             1713.82  1739.43  1881.78  1911.58  1973.14
                             2075.63  2131.73  2157.96  2173.27  2202.75
                             2244.56  2377.29  2409.26  4403.77  4520.02
                             4602.40  4627.28  4653.19  4654.47  4681.66
                             5045.84  5175.04

 Zero-point correction=                           0.160773 (Hartree/Particle)
 Thermal correction to Energy=                    0.172159
 Thermal correction to Enthalpy=                  0.173103
 Thermal correction to Gibbs Free Energy=         0.122762
 Sum of electronic and zero-point Energies=           -929.990882
 Sum of electronic and thermal Energies=              -929.979496
 Sum of electronic and thermal Enthalpies=            -929.978552
 Sum of electronic and thermal Free Energies=         -930.028892

                     E (Thermal)             CV                S
                      KCal/Mol        Cal/Mol-Kelvin    Cal/Mol-Kelvin
 Total                  108.031             43.200            105.951
 Electronic               0.000              0.000              0.000
 Translational            0.889              2.981             41.552
 Rotational               0.889              2.981             31.120
 Vibrational            106.254             37.238             33.279
 Vibration     1          0.594              1.984              5.818
 Vibration     2          0.598              1.969              4.173
 Vibration     3          0.610              1.929              3.032
 Vibration     4          0.618              1.904              2.683
 Vibration     5          0.636              1.845              2.168
 Vibration     6          0.658              1.776              1.787
 Vibration     7          0.672              1.735              1.620
 Vibration     8          0.680              1.710              1.531
 Vibration     9          0.708              1.629              1.294
 Vibration    10          0.747              1.521              1.054
 Vibration    11          0.771              1.457              0.941
 Vibration    12          0.783              1.425              0.890
 Vibration    13          0.814              1.348              0.779
 Vibration    14          0.847              1.270              0.681
 Vibration    15          0.860              1.239              0.646
 Vibration    16          0.873              1.210              0.614
 Vibration    17          0.902              1.146              0.550
 Vibration    18          0.948              1.052              0.467

 Optimization completed.
    -- Stationary point found.
 Normal termination of Gaussian 16 at Wed Jun 29 10:43:12 2022.
