 Gaussian 16, Revision C.01,
 Gaussian 16:  ES64L-G16RevC.01  3-Jul-2019

 -----------------------------------------------------
 #m062X/gen 6D OPT Freq=noraman SCRF=(SMD,Solvent=h2o)
 -----------------------------------------------------

 ---------------------
 A.11.smd.a1b3c2d2.smd
 ---------------------
 Symbolic Z-matrix:
 Charge = -1 Multiplicity = 1

 SCF Done:  E(RM062X) =  -930.142480115     A.U. after   15 cycles
 SCF Done:  E(RM062X) =  -930.149241081     A.U. after   14 cycles
 SCF Done:  E(RM062X) =  -930.150272217     A.U. after   13 cycles
 SCF Done:  E(RM062X) =  -930.150560114     A.U. after   13 cycles
 SCF Done:  E(RM062X) =  -930.150939627     A.U. after   14 cycles
 SCF Done:  E(RM062X) =  -930.151013170     A.U. after   12 cycles
 SCF Done:  E(RM062X) =  -930.151096519     A.U. after   14 cycles
 SCF Done:  E(RM062X) =  -930.151183317     A.U. after   14 cycles
 SCF Done:  E(RM062X) =  -930.151178652     A.U. after   14 cycles
 SCF Done:  E(RM062X) =  -930.151241227     A.U. after   13 cycles
 SCF Done:  E(RM062X) =  -930.151703079     A.U. after   11 cycles
 SCF Done:  E(RM062X) =  -930.151707296     A.U. after   12 cycles
 SCF Done:  E(RM062X) =  -930.151707203     A.U. after   11 cycles
 SCF Done:  E(RM062X) =  -930.151709040     A.U. after   11 cycles
 SCF Done:  E(RM062X) =  -930.151708906     A.U. after   10 cycles
 SCF Done:  E(RM062X) =  -930.151708757     A.U. after   10 cycles
 SCF Done:  E(RM062X) =  -930.151708425     A.U. after   10 cycles
 SCF Done:  E(RM062X) =  -930.151708689     A.U. after   10 cycles
 SCF Done:  E(RM062X) =  -930.151708411     A.U. after    9 cycles
 Optimization completed.
    -- Stationary point found.
 Normal termination of Gaussian 16 at Wed Jun 29 12:52:02 2022.

 ------------------------------------------------------------------
 #N Geom=AllCheck Guess=TCheck SCRF=Check GenChk RM062X/ChkBas Freq
 ------------------------------------------------------------------

 Structure from the checkpoint file:  "/jobfs/48706216.gadi-pbs/Gau-1926819.chk"
 ---------------------
 A.11.smd.a1b3c2d2.smd
 ---------------------
 Charge = -1 Multiplicity = 1

                         Standard orientation:
 ---------------------------------------------------------------------
 Center     Atomic      Atomic             Coordinates (Angstroms)
 Number     Number       Type             X           Y           Z
 ---------------------------------------------------------------------
      1          6           0       -0.546571   -0.024455   -0.140352
      2          6           0        0.142255   -1.234945   -0.144974
      3          1           0       -0.401867   -2.171891   -0.075262
      4          6           0        1.532617   -1.230469   -0.254762
      5          1           0        2.073849   -2.174096   -0.269125
      6          6           0        2.241513   -0.029381   -0.352767
      7          6           0        3.751787   -0.027282   -0.406298
      8          6           0        1.529855    1.176536   -0.341824
      9          1           0        2.070039    2.117461   -0.423754
     10          6           0        0.141794    1.185786   -0.234648
     11          1           0       -0.401640    2.126933   -0.236172
     12         16           0       -2.332800   -0.001508    0.080726
     13          8           0       -2.790035    1.072494   -0.855510
     14          8           0       -2.791054   -1.364529   -0.303674
     15          7           0       -2.683864    0.247163    1.585541
     16          1           0       -2.457555    1.222120    1.801765
     17          7           0        4.398140    0.074929    0.911110
     18          1           0        4.102867   -0.946151   -0.883686
     19          1           0        4.096484    0.812606   -1.015822
     20          1           0        4.070133   -0.697670    1.490982
     21          1           0        4.061772    0.921717    1.370126
 ---------------------------------------------------------------------

 SCF Done:  E(RM062X) =  -930.151708411     A.U. after    1 cycles

 The electronic state is 1-A.
 Alpha  occ. eigenvalues --  -90.13260 -19.61891 -19.61786 -14.74521 -14.71689
 Alpha  occ. eigenvalues --  -10.57490 -10.56783 -10.56259 -10.56168 -10.56149
 Alpha  occ. eigenvalues --  -10.55661 -10.55625  -8.44159  -6.36404  -6.36307
 Alpha  occ. eigenvalues --   -6.36223  -1.20538  -1.08968  -0.99459  -0.96704
 Alpha  occ. eigenvalues --   -0.95411  -0.86397  -0.84890  -0.76384  -0.70011
 Alpha  occ. eigenvalues --   -0.69749  -0.65003  -0.60214  -0.56908  -0.55704
 Alpha  occ. eigenvalues --   -0.53906  -0.53005  -0.51293  -0.50886  -0.49060
 Alpha  occ. eigenvalues --   -0.48746  -0.44994  -0.43644  -0.42802  -0.41713
 Alpha  occ. eigenvalues --   -0.39839  -0.39205  -0.37205  -0.35853  -0.33455
 Alpha  occ. eigenvalues --   -0.32544  -0.31366  -0.30712  -0.28077
 Alpha virt. eigenvalues --    0.00477   0.01420   0.02028   0.03407   0.04145
 Alpha virt. eigenvalues --    0.04311   0.05199   0.05424   0.05733   0.06352
 Alpha virt. eigenvalues --    0.07908   0.08210   0.09706   0.10095   0.10830

 Mulliken charges:
               1
     1  C   -1.285276
     2  C   -0.372589
     3  H    0.262374
     4  C   -0.359012
     5  H    0.247871
     6  C   -0.112326
     7  C   -0.103624
     8  C   -0.317258
     9  H    0.249180
    10  C    0.667138
    11  H    0.260671
    12  S    1.538871
    13  O   -0.720297
    14  O   -0.782761
    15  N   -0.951572
    16  H    0.403392
    17  N   -0.973077
    18  H    0.235404
    19  H    0.237366
    20  H    0.437876
    21  H    0.437648
 Sum of Mulliken charges =  -1.00000

 Dipole moment (field-independent basis, Debye):
    X=             15.6514    Y=              2.0151    Z=              0.1143  Tot=             15.7810
 Quadrupole moment (field-independent basis, Debye-Ang):
   XX=           -144.7519   YY=            -78.9205   ZZ=            -91.3376
   XY=             -5.0435   XZ=             -1.0725   YZ=              4.0012

  Exact polarizability:     224.483      -1.751     186.877      -8.353      -1.820     137.614
 Approx polarizability:     175.787      -0.717     165.464      -5.880      -1.955     119.884

                      1                      2                      3
                      A                      A                      A
 Frequencies --     27.9682                40.3361                67.6034
 Red. masses --      2.8794                 4.8404                 5.9764
 Frc consts  --      0.0013                 0.0046                 0.0161
 IR Inten    --      0.0719                 0.6007                 7.5154

                      4                      5                      6
                      A                      A                      A
 Frequencies --    161.3007               164.6862               242.7422
 Red. masses --      5.2935                 4.6951                 3.8092
 Frc consts  --      0.0811                 0.0750                 0.1322
 IR Inten    --      3.9698                17.1917                 2.2144

                      7                      8                      9
                      A                      A                      A
 Frequencies --    265.9689               298.2383               322.9278
 Red. masses --      1.7291                 2.7929                 3.0683
 Frc consts  --      0.0721                 0.1464                 0.1885
 IR Inten    --     52.6990                82.3795                28.6641

                     10                     11                     12
                      A                      A                      A
 Frequencies --    367.9576               409.4860               414.9530
 Red. masses --      1.7871                 3.3138                 3.7262
 Frc consts  --      0.1426                 0.3274                 0.3780
 IR Inten    --     55.0299                 2.7946                 7.7388

                     13                     14                     15
                      A                      A                      A
 Frequencies --    450.5570               491.2920               501.1648
 Red. masses --      2.4088                 3.8044                 7.3489
 Frc consts  --      0.2881                 0.5410                 1.0875
 IR Inten    --    132.4590               109.1797                13.9259

                     16                     17                     18
                      A                      A                      A
 Frequencies --    556.4549               581.2714               642.5332
 Red. masses --      5.2072                 3.9361                 6.8341
 Frc consts  --      0.9500                 0.7836                 1.6624
 IR Inten    --    110.5259               207.3920                 0.1012

                     19                     20                     21
                      A                      A                      A
 Frequencies --    667.4672               754.4252               821.5231
 Red. masses --      4.9225                 3.8614                 3.8932
 Frc consts  --      1.2921                 1.2949                 1.5481
 IR Inten    --    128.6182                 1.7235                44.5862

                     22                     23                     24
                      A                      A                      A
 Frequencies --    865.8121               867.4822               891.1031
 Red. masses --      1.2671                 1.6376                 1.2971
 Frc consts  --      0.5596                 0.7261                 0.6069
 IR Inten    --      1.3425                30.7866                 0.6338

                     25                     26                     27
                      A                      A                      A
 Frequencies --    955.3316               985.0949               993.2261
 Red. masses --     11.3343                 1.9178                 1.4300
 Frc consts  --      6.0947                 1.0965                 0.8311
 IR Inten    --    448.8924               252.4742                16.1924

                     28                     29                     30
                      A                      A                      A
 Frequencies --   1008.4949              1035.1077              1066.3451
 Red. masses --      1.3760                 3.1554                 5.1531
 Frc consts  --      0.8245                 1.9919                 3.4523
 IR Inten    --      0.0564                24.9752               684.2410

                     31                     32                     33
                      A                      A                      A
 Frequencies --   1114.3237              1115.2517              1123.7453
 Red. masses --      2.4356                 2.5405                 1.3098
 Frc consts  --      1.7819                 1.8617                 0.9745
 IR Inten    --    286.8065                42.7806                12.8418

                     34                     35                     36
                      A                      A                      A
 Frequencies --   1139.8124              1166.2242              1184.0132
 Red. masses --      3.2022                 1.1856                 2.5567
 Frc consts  --      2.4511                 0.9501                 2.1117
 IR Inten    --     97.8758                 1.3034               402.8658

                     37                     38                     39
                      A                      A                      A
 Frequencies --   1197.4748              1247.9545              1325.1362
 Red. masses --      1.1852                 2.7639                 1.4124
 Frc consts  --      1.0014                 2.5361                 1.4612
 IR Inten    --     13.7056                 7.1949                 1.2027

                     40                     41                     42
                      A                      A                      A
 Frequencies --   1343.9039              1393.1048              1396.3622
 Red. masses --      4.2970                 1.3428                 1.2692
 Frc consts  --      4.5725                 1.5354                 1.4581
 IR Inten    --      0.0748                31.3057                 9.1819

                     43                     44                     45
                      A                      A                      A
 Frequencies --   1450.2450              1499.7088              1544.3623
 Red. masses --      2.7562                 1.0903                 2.5839
 Frc consts  --      3.4154                 1.4448                 3.6309
 IR Inten    --     17.1655                 3.3767                 6.6035

                     46                     47                     48
                      A                      A                      A
 Frequencies --   1651.3746              1655.1086              1680.0643
 Red. masses --      1.0913                 7.0109                 6.3976
 Frc consts  --      1.7535                11.3156                10.6395
 IR Inten    --     68.7414                 1.7978                 4.1918

                     49                     50                     51
                      A                      A                      A
 Frequencies --   3110.3563              3159.1338              3212.7174
 Red. masses --      1.0603                 1.1071                 1.0898
 Frc consts  --      6.0437                 6.5096                 6.6272
 IR Inten    --     57.7517                36.2365                10.7378

                     52                     53                     54
                      A                      A                      A
 Frequencies --   3214.3657              3233.4755              3245.0882
 Red. masses --      1.0906                 1.0940                 1.0931
 Frc consts  --      6.6389                 6.7392                 6.7823
 IR Inten    --     12.2998                 4.5714                 2.6990

                     55                     56                     57
                      A                      A                      A
 Frequencies --   3491.9894              3497.7751              3571.3817
 Red. masses --      1.0514                 1.0733                 1.0923
 Frc consts  --      7.5541                 7.7368                 8.2088
 IR Inten    --      3.1860                34.4158                16.1991

 - Thermochemistry -
 -------------------
 Temperature   298.150 Kelvin.  Pressure   1.00000 Atm.
 Atom     1 has atomic number  6 and mass  12.00000

 Molecular mass:   185.03847 amu.
 Principal axes and moments of inertia in atomic units:
                           1         2         3
     Eigenvalues --   780.793694433.830904668.24189
           X            1.00000  -0.00252  -0.00163
           Y            0.00256   0.99963   0.02715
           Z            0.00156  -0.02716   0.99963
 This molecule is an asymmetric top.
 Rotational symmetry number  1.
 Warning -- assumption of classical behavior for rotation
           may cause significant error
 Rotational temperatures (Kelvin)      0.11093     0.01953     0.01855
 Rotational constants (GHZ):           2.31142     0.40704     0.38660
 Zero-point vibrational energy     423976.3 (Joules/Mol)
                                  101.33278 (Kcal/Mol)
 Warning -- explicit consideration of  17 degrees of freedom as
           vibrations may cause significant error
 Vibrational temperatures:     40.24    58.03    97.27   232.08   236.95
          (Kelvin)            349.25   382.67   429.10   464.62   529.41
                              589.16   597.02   648.25   706.86   721.06
                              800.61   836.32   924.46   960.34  1085.45
                             1181.99  1245.71  1248.11  1282.10  1374.51
                             1417.33  1429.03  1451.00  1489.29  1534.23
                             1603.26  1604.60  1616.82  1639.94  1677.94
                             1703.53  1722.90  1795.53  1906.58  1933.58
                             2004.37  2009.05  2086.58  2157.75  2221.99
                             2375.96  2381.33  2417.24  4475.11  4545.29
                             4622.38  4624.76  4652.25  4668.96  5024.19
                             5032.52  5138.42

 Zero-point correction=                           0.161484 (Hartree/Particle)
 Thermal correction to Energy=                    0.172921
 Thermal correction to Enthalpy=                  0.173866
 Thermal correction to Gibbs Free Energy=         0.122512
 Sum of electronic and zero-point Energies=           -929.990224
 Sum of electronic and thermal Energies=              -929.978787
 Sum of electronic and thermal Enthalpies=            -929.977843
 Sum of electronic and thermal Free Energies=         -930.029197

                     E (Thermal)             CV                S
                      KCal/Mol        Cal/Mol-Kelvin    Cal/Mol-Kelvin
 Total                  108.510             42.704            108.083
 Electronic               0.000              0.000              0.000
 Translational            0.889              2.981             41.552
 Rotational               0.889              2.981             31.158
 Vibrational            106.732             36.743             35.373
 Vibration     1          0.593              1.984              5.969
 Vibration     2          0.594              1.981              5.243
 Vibration     3          0.598              1.970              4.222
 Vibration     4          0.622              1.890              2.534
 Vibration     5          0.623              1.886              2.495
 Vibration     6          0.659              1.775              1.783
 Vibration     7          0.672              1.735              1.622
 Vibration     8          0.691              1.677              1.427
 Vibration     9          0.708              1.630              1.295
 Vibration    10          0.741              1.538              1.088
 Vibration    11          0.774              1.450              0.928
 Vibration    12          0.778              1.438              0.909
 Vibration    13          0.809              1.360              0.794
 Vibration    14          0.847              1.269              0.680
 Vibration    15          0.857              1.247              0.655
 Vibration    16          0.912              1.126              0.531
 Vibration    17          0.938              1.072              0.483

                           ! Non-Optimized Parameters !
 Normal termination of Gaussian 16 at Wed Jun 29 12:56:07 2022.
