 Gaussian 16, Revision C.01,
 Gaussian 16:  ES64L-G16RevC.01  3-Jul-2019

 -----------------------------------------------------
 #m062X/gen 6D OPT Freq=noraman SCRF=(SMD,Solvent=h2o)
 -----------------------------------------------------

 -----------------
 A.12.smd.a2b3.smd
 -----------------
 Symbolic Z-matrix:
 Charge = -1 Multiplicity = 1

 SCF Done:  E(RM062X) =  -988.111027269     A.U. after   17 cycles
 SCF Done:  E(RM062X) =  -988.115522047     A.U. after   16 cycles
 SCF Done:  E(RM062X) =  -988.116401258     A.U. after   15 cycles
 SCF Done:  E(RM062X) =  -988.117276065     A.U. after   17 cycles
 SCF Done:  E(RM062X) =  -988.117507593     A.U. after   17 cycles
 SCF Done:  E(RM062X) =  -988.117595553     A.U. after   15 cycles
 SCF Done:  E(RM062X) =  -988.117651499     A.U. after   14 cycles
 SCF Done:  E(RM062X) =  -988.117680244     A.U. after   13 cycles
 SCF Done:  E(RM062X) =  -988.117686037     A.U. after   14 cycles
 SCF Done:  E(RM062X) =  -988.117686465     A.U. after   14 cycles
 SCF Done:  E(RM062X) =  -988.117689324     A.U. after   13 cycles
 SCF Done:  E(RM062X) =  -988.117690069     A.U. after   11 cycles
 SCF Done:  E(RM062X) =  -988.117690566     A.U. after   12 cycles
 SCF Done:  E(RM062X) =  -988.117690659     A.U. after   11 cycles
 SCF Done:  E(RM062X) =  -988.117690715     A.U. after   11 cycles
 Optimization completed.
    -- Stationary point found.
 Normal termination of Gaussian 16 at Wed Jun 29 12:13:32 2022.

 ------------------------------------------------------------------
 #N Geom=AllCheck Guess=TCheck SCRF=Check GenChk RM062X/ChkBas Freq
 ------------------------------------------------------------------

 Structure from the checkpoint file:  "/jobfs/48710044.gadi-pbs/Gau-871062.chk"
 -----------------
 A.12.smd.a2b3.smd
 -----------------
 Charge = -1 Multiplicity = 1

                         Standard orientation:
 ---------------------------------------------------------------------
 Center     Atomic      Atomic             Coordinates (Angstroms)
 Number     Number       Type             X           Y           Z
 ---------------------------------------------------------------------
      1          6           0       -0.814866    0.009232    0.059637
      2          6           0       -0.164054   -1.227051    0.045958
      3          1           0       -0.737362   -2.149983    0.058026
      4          6           0        1.223399   -1.266790    0.024090
      5          1           0        1.740375   -2.221203    0.017633
      6          6           0        1.966080   -0.077968    0.010781
      7          6           0        3.460319   -0.155165   -0.015176
      8          6           0        1.300729    1.151982    0.021658
      9          1           0        1.858711    2.082897    0.015612
     10          6           0       -0.092316    1.198240    0.045140
     11          1           0       -0.608978    2.152301    0.058026
     12         16           0       -2.617740    0.041894    0.002332
     13          8           0       -3.013483   -0.997117    1.001291
     14          8           0       -2.992400    1.426143    0.393642
     15          7           0       -3.098442   -0.229587   -1.459325
     16          1           0       -2.935697   -1.219293   -1.665342
     17          8           0        4.020109   -1.246220    0.006103
     18          6           0        4.254517    1.119284   -0.069880
     19          1           0        4.039910    1.736965    0.808652
     20          1           0        3.980724    1.700208   -0.956799
     21          1           0        5.318591    0.881883   -0.099375
 ---------------------------------------------------------------------

 SCF Done:  E(RM062X) =  -988.117690715     A.U. after    2 cycles

 The electronic state is 1-A.
 Alpha  occ. eigenvalues --  -90.13588 -19.65288 -19.62168 -19.62058 -14.71983
 Alpha  occ. eigenvalues --  -10.65681 -10.58564 -10.57251 -10.57050 -10.56881
 Alpha  occ. eigenvalues --  -10.56790 -10.56762 -10.54201  -8.44478  -6.36722
 Alpha  occ. eigenvalues --   -6.36627  -6.36548  -1.20910  -1.17861  -1.09313
 Alpha  occ. eigenvalues --   -0.98190  -0.96061  -0.88523  -0.85944  -0.83166
 Alpha  occ. eigenvalues --   -0.74593  -0.70291  -0.67407  -0.63958  -0.60456
 Alpha  occ. eigenvalues --   -0.56712  -0.55529  -0.54869  -0.52727  -0.52028
 Alpha  occ. eigenvalues --   -0.51940  -0.50092  -0.49849  -0.47532  -0.45688
 Alpha  occ. eigenvalues --   -0.44466  -0.43256  -0.42120  -0.41242  -0.39532
 Alpha  occ. eigenvalues --   -0.37516  -0.36348  -0.34152  -0.33325  -0.32721
 Alpha  occ. eigenvalues --   -0.32118  -0.28926
 Alpha virt. eigenvalues --   -0.03910   0.00972   0.01891   0.03215   0.04064
 Alpha virt. eigenvalues --    0.04633   0.05082   0.05232   0.05776   0.06279
 Alpha virt. eigenvalues --    0.06705   0.07216   0.07492   0.08993   0.09312

 Mulliken charges:
               1
     1  C   -1.343109
     2  C    0.387221
     3  H    0.268485
     4  C    0.369307
     5  H    0.267708
     6  C    0.412892
     7  C    0.751513
     8  C   -0.450416
     9  H    0.262707
    10  C   -1.096086
    11  H    0.271388
    12  S    1.550917
    13  O   -0.697526
    14  O   -0.779852
    15  N   -0.935808
    16  H    0.407079
    17  O   -0.554100
    18  C   -0.899547
    19  H    0.275517
    20  H    0.274464
    21  H    0.257246
 Sum of Mulliken charges =  -1.00000

 Dipole moment (field-independent basis, Debye):
    X=             15.3843    Y=              1.5807    Z=             -0.8271  Tot=             15.4874
 Quadrupole moment (field-independent basis, Debye-Ang):
   XX=           -152.7183   YY=            -86.7353   ZZ=            -96.4469
   XY=             23.2079   XZ=              0.9874   YZ=              4.1538

  Exact polarizability:     249.743      -6.290     200.057       5.311      -0.421     130.637
 Approx polarizability:     192.981      -6.454     177.829       3.313      -0.502     116.731

                      1                      2                      3
                      A                      A                      A
 Frequencies --     27.1808                43.2346                68.3758
 Red. masses --      5.5923                 3.9729                 7.4960
 Frc consts  --      0.0024                 0.0044                 0.0206
 IR Inten    --      3.9726                 6.8943                11.5235

                      4                      5                      6
                      A                      A                      A
 Frequencies --    137.6937               179.8705               194.1721
 Red. masses --      6.7545                 6.0652                 1.0309
 Frc consts  --      0.0755                 0.1156                 0.0229
 IR Inten    --     17.6760                 0.2343                 0.4828

                      7                      8                      9
                      A                      A                      A
 Frequencies --    232.6820               247.9545               298.3141
 Red. masses --      4.5095                10.8291                 2.6136
 Frc consts  --      0.1438                 0.3923                 0.1370
 IR Inten    --      3.5798                 5.5801                66.3668

                     10                     11                     12
                      A                      A                      A
 Frequencies --    341.6160               407.3563               416.5474
 Red. masses --      4.5622                 2.8676                 3.2975
 Frc consts  --      0.3137                 0.2804                 0.3371
 IR Inten    --     31.0721                 2.1922                58.8596

                     13                     14                     15
                      A                      A                      A
 Frequencies --    442.3307               473.9920               486.0913
 Red. masses --      2.8577                 4.7674                 3.7074
 Frc consts  --      0.3294                 0.6311                 0.5161
 IR Inten    --     31.7828                 3.8168               186.4908

                     16                     17                     18
                      A                      A                      A
 Frequencies --    500.2907               537.7727               589.2953
 Red. masses --      4.6163                 5.1927                 7.5831
 Frc consts  --      0.6808                 0.8848                 1.5515
 IR Inten    --     39.6642                75.9137                75.9541

                     19                     20                     21
                      A                      A                      A
 Frequencies --    607.9002               638.1715               645.9541
 Red. masses --      2.2671                 7.0477                 5.2116
 Frc consts  --      0.4936                 1.6911                 1.2812
 IR Inten    --     62.5049                 1.4177               257.7588

                     22                     23                     24
                      A                      A                      A
 Frequencies --    750.7002               788.5118               859.9287
 Red. masses --      3.6239                 5.9338                 1.4752
 Frc consts  --      1.2033                 2.1737                 0.6427
 IR Inten    --      7.6043                 2.8778                70.1866

                     25                     26                     27
                      A                      A                      A
 Frequencies --    867.3814               958.2447               988.3296
 Red. masses --      1.2745                11.6806                 2.0832
 Frc consts  --      0.5649                 6.3193                 1.1989
 IR Inten    --      4.9310               433.5084                10.7275

                     28                     29                     30
                      A                      A                      A
 Frequencies --   1001.3718              1017.5491              1030.3478
 Red. masses --      1.3579                 1.3833                 3.2355
 Frc consts  --      0.8022                 0.8439                 2.0238
 IR Inten    --      1.5372                 0.0749                17.9668

                     31                     32                     33
                      A                      A                      A
 Frequencies --   1050.9875              1069.3729              1107.4966
 Red. masses --      1.9129                 4.6637                 2.6338
 Frc consts  --      1.2449                 3.1422                 1.9034
 IR Inten    --      3.3547               680.2261                 4.5788

                     34                     35                     36
                      A                      A                      A
 Frequencies --   1116.1817              1133.5877              1143.0675
 Red. masses --      2.3941                 1.4930                 2.1954
 Frc consts  --      1.7573                 1.1303                 1.6901
 IR Inten    --    281.3533                51.6512                58.0570

                     37                     38                     39
                      A                      A                      A
 Frequencies --   1189.1946              1195.3338              1303.6578
 Red. masses --      2.6187                 1.2270                 2.8128
 Frc consts  --      2.1819                 1.0329                 2.8166
 IR Inten    --    399.3538                91.1605               301.6793

                     40                     41                     42
                      A                      A                      A
 Frequencies --   1324.6181              1345.2407              1404.7368
 Red. masses --      1.3193                 9.1228                 1.4648
 Frc consts  --      1.3639                 9.7270                 1.7030
 IR Inten    --     16.0158                22.8976                86.9831

                     43                     44                     45
                      A                      A                      A
 Frequencies --   1441.4718              1472.7979              1475.2782
 Red. masses --      3.2060                 1.0673                 1.0451
 Frc consts  --      3.9249                 1.3640                 1.3401
 IR Inten    --     86.1740                36.9562                19.2685

                     46                     47                     48
                      A                      A                      A
 Frequencies --   1542.2341              1650.2389              1676.8978
 Red. masses --      2.5103                 7.4518                 6.3095
 Frc consts  --      3.5179                11.9566                10.4534
 IR Inten    --     12.9813                38.2879               101.9431

                     49                     50                     51
                      A                      A                      A
 Frequencies --   1752.8559              3093.3584              3163.9852
 Red. masses --     10.8404                 1.0372                 1.1007
 Frc consts  --     19.6240                 5.8477                 6.4919
 IR Inten    --    669.1043                 0.3986                 0.8234

                     52                     53                     54
                      A                      A                      A
 Frequencies --   3204.7252              3232.7961              3245.9289
 Red. masses --      1.1043                 1.0902                 1.0891
 Frc consts  --      6.6819                 6.7131                 6.7606
 IR Inten    --     15.2945                 0.2767                 0.4618

                     55                     56                     57
                      A                      A                      A
 Frequencies --   3250.2264              3256.8960              3501.9774
 Red. masses --      1.0941                 1.0951                 1.0734
 Frc consts  --      6.8099                 6.8443                 7.7558
 IR Inten    --      1.6220                 1.8960                39.7923

 - Thermochemistry -
 -------------------
 Temperature   298.150 Kelvin.  Pressure   1.00000 Atm.
 Atom     1 has atomic number  6 and mass  12.00000

 Molecular mass:   198.02249 amu.
 Principal axes and moments of inertia in atomic units:
                           1         2         3
     Eigenvalues --   854.498945299.397035776.42367
           X            0.99984   0.01789   0.00284
           Y           -0.01792   0.99976   0.01295
           Z           -0.00261  -0.01300   0.99991
 This molecule is an asymmetric top.
 Rotational symmetry number  1.
 Warning -- assumption of classical behavior for rotation
           may cause significant error
 Rotational temperatures (Kelvin)      0.10136     0.01634     0.01499
 Rotational constants (GHZ):           2.11205     0.34056     0.31243
 Zero-point vibrational energy     401492.5 (Joules/Mol)
                                   95.95901 (Kcal/Mol)
 Warning -- explicit consideration of  19 degrees of freedom as
           vibrations may cause significant error
 Vibrational temperatures:     39.11    62.20    98.38   198.11   258.79
          (Kelvin)            279.37   334.78   356.75   429.21   491.51
                              586.09   599.32   636.42   681.97   699.38
                              719.81   773.73   847.86   874.63   918.19
                              929.38  1080.09  1134.49  1237.25  1247.97
                             1378.70  1421.99  1440.75  1464.03  1482.44
                             1512.14  1538.59  1593.44  1605.94  1630.98
                             1644.62  1710.99  1719.82  1875.67  1905.83
                             1935.50  2021.10  2073.96  2119.03  2122.60
                             2218.93  2374.33  2412.68  2521.97  4450.65
                             4552.27  4610.88  4651.27  4670.17  4676.35
                             4685.95  5038.56

 Zero-point correction=                           0.152920 (Hartree/Particle)
 Thermal correction to Energy=                    0.165003
 Thermal correction to Enthalpy=                  0.165947
 Thermal correction to Gibbs Free Energy=         0.113129
 Sum of electronic and zero-point Energies=           -987.964770
 Sum of electronic and thermal Energies=              -987.952688
 Sum of electronic and thermal Enthalpies=            -987.951744
 Sum of electronic and thermal Free Energies=         -988.004561

                     E (Thermal)             CV                S
                      KCal/Mol        Cal/Mol-Kelvin    Cal/Mol-Kelvin
 Total                  103.541             45.022            111.164
 Electronic               0.000              0.000              0.000
 Translational            0.889              2.981             41.755
 Rotational               0.889              2.981             31.637
 Vibrational            101.763             39.061             37.773
 Vibration     1          0.593              1.984              6.025
 Vibration     2          0.595              1.980              5.105
 Vibration     3          0.598              1.969              4.200
 Vibration     4          0.614              1.916              2.836
 Vibration     5          0.629              1.867              2.330
 Vibration     6          0.635              1.848              2.188
 Vibration     7          0.653              1.791              1.858
 Vibration     8          0.662              1.766              1.745
 Vibration     9          0.691              1.677              1.426
 Vibration    10          0.721              1.592              1.205
 Vibration    11          0.772              1.454              0.936
 Vibration    12          0.780              1.434              0.904
 Vibration    13          0.802              1.378              0.819
 Vibration    14          0.831              1.308              0.726
 Vibration    15          0.842              1.281              0.694
 Vibration    16          0.856              1.249              0.657
 Vibration    17          0.893              1.167              0.570
 Vibration    18          0.947              1.055              0.468
 Vibration    19          0.967              1.015              0.436

 Optimization completed.
    -- Stationary point found.
 Normal termination of Gaussian 16 at Wed Jun 29 12:17:54 2022.
