 Gaussian 16, Revision C.01,
 Gaussian 16:  ES64L-G16RevC.01  3-Jul-2019

 -----------------------------------------------------
 #m062X/gen 6D OPT Freq=noraman SCRF=(SMD,Solvent=h2o)
 -----------------------------------------------------

 -------------------
 A.13.smd.a1b3d3.smd
 -------------------
 Symbolic Z-matrix:
 Charge = -1 Multiplicity = 1

 SCF Done:  E(RM062X) =  -1063.31483619     A.U. after   16 cycles
 SCF Done:  E(RM062X) =  -1063.32022106     A.U. after   14 cycles
 SCF Done:  E(RM062X) =  -1063.32234839     A.U. after   15 cycles
 SCF Done:  E(RM062X) =  -1063.32439805     A.U. after   17 cycles
 SCF Done:  E(RM062X) =  -1063.32575029     A.U. after   15 cycles
 SCF Done:  E(RM062X) =  -1063.32602571     A.U. after   14 cycles
 SCF Done:  E(RM062X) =  -1063.32618798     A.U. after   15 cycles
 SCF Done:  E(RM062X) =  -1063.32624615     A.U. after   14 cycles
 SCF Done:  E(RM062X) =  -1063.32631375     A.U. after   14 cycles
 SCF Done:  E(RM062X) =  -1063.32634142     A.U. after   13 cycles
 SCF Done:  E(RM062X) =  -1063.32636130     A.U. after   10 cycles
 SCF Done:  E(RM062X) =  -1063.32611228     A.U. after   16 cycles
 SCF Done:  E(RM062X) =  -1063.32639430     A.U. after   16 cycles
 SCF Done:  E(RM062X) =  -1063.32641426     A.U. after   13 cycles
 SCF Done:  E(RM062X) =  -1063.32641747     A.U. after   13 cycles
 SCF Done:  E(RM062X) =  -1063.32641734     A.U. after   12 cycles
 SCF Done:  E(RM062X) =  -1063.32641777     A.U. after   11 cycles
 SCF Done:  E(RM062X) =  -1063.32641782     A.U. after   10 cycles
 SCF Done:  E(RM062X) =  -1063.32641770     A.U. after   11 cycles
 Optimization completed.
    -- Stationary point found.
 Normal termination of Gaussian 16 at Sun May 22 13:37:17 2022.

 ------------------------------------------------------------------
 #N Geom=AllCheck Guess=TCheck SCRF=Check GenChk RM062X/ChkBas Freq
 ------------------------------------------------------------------

 Structure from the checkpoint file:  "/jobfs/40911237.gadi-pbs/Gau-830181.chk"
 -------------------
 A.13.smd.a1b3d3.smd
 -------------------
 Charge = -1 Multiplicity = 1

                         Standard orientation:
 ---------------------------------------------------------------------
 Center     Atomic      Atomic             Coordinates (Angstroms)
 Number     Number       Type             X           Y           Z
 ---------------------------------------------------------------------
      1          6           0       -1.212159   -0.002213   -0.059324
      2          6           0       -0.442587   -1.162448   -0.038426
      3          1           0       -0.921322   -2.136202   -0.044559
      4          6           0        0.946758   -1.062837   -0.018462
      5          1           0        1.551795   -1.963005   -0.007395
      6          6           0        1.554510    0.195446   -0.015589
      7          6           0        3.035957    0.346642    0.005280
      8          6           0        0.772655    1.355474   -0.033957
      9          1           0        1.252411    2.329057   -0.034457
     10          6           0       -0.612887    1.258570   -0.054224
     11          1           0       -1.222539    2.157646   -0.071777
     12         16           0       -3.012800   -0.103182    0.000200
     13          8           0       -3.447175    0.916647   -1.001969
     14          8           0       -3.336146   -1.501619   -0.385898
     15          7           0       -3.500977    0.155883    1.461514
     16          1           0       -3.374862    1.151727    1.663656
     17          8           0        3.683315   -0.818373    0.022282
     18          8           0        3.609449    1.423045    0.007611
     19          6           0        5.117986   -0.745943    0.044057
     20          1           0        5.459361   -1.779134    0.058012
     21          1           0        5.450899   -0.219639    0.940641
     22          1           0        5.478952   -0.234474   -0.850260
 ---------------------------------------------------------------------

 SCF Done:  E(RM062X) =  -1063.32641770     A.U. after    2 cycles

 The electronic state is 1-A.
 Alpha  occ. eigenvalues --  -90.13608 -19.70337 -19.65201 -19.62184 -19.62065
 Alpha  occ. eigenvalues --  -14.71992 -10.70178 -10.59484 -10.58632 -10.58003
 Alpha  occ. eigenvalues --  -10.57166 -10.57096 -10.56954 -10.56865  -8.44498
 Alpha  occ. eigenvalues --   -6.36741  -6.36646  -6.36568  -1.24954  -1.20935
 Alpha  occ. eigenvalues --   -1.15274  -1.09335  -0.98456  -0.96111  -0.88851
 Alpha  occ. eigenvalues --   -0.86060  -0.82553  -0.74618  -0.70596  -0.67841
 Alpha  occ. eigenvalues --   -0.65137  -0.62877  -0.59231  -0.57881  -0.57453
 Alpha  occ. eigenvalues --   -0.55519  -0.53870  -0.52914  -0.51441  -0.50791
 Alpha  occ. eigenvalues --   -0.49887  -0.48376  -0.46038  -0.45112  -0.43556
 Alpha  occ. eigenvalues --   -0.42165  -0.41421  -0.39568  -0.38600  -0.37592
 Alpha  occ. eigenvalues --   -0.37331  -0.36395  -0.33460  -0.32818  -0.32233
 Alpha  occ. eigenvalues --   -0.28984
 Alpha virt. eigenvalues --   -0.03223   0.00857   0.01779   0.03023   0.04104
 Alpha virt. eigenvalues --    0.04490   0.04750   0.05344   0.05747   0.05936
 Alpha virt. eigenvalues --    0.06190   0.07292   0.07583   0.08826   0.08936

 Mulliken charges:
               1
     1  C   -1.498899
     2  C   -0.536704
     3  H    0.271913
     4  C   -0.271887
     5  H    0.275627
     6  C   -0.159297
     7  C    0.990886
     8  C   -0.117928
     9  H    0.271331
    10  C    0.532958
    11  H    0.270730
    12  S    1.578992
    13  O   -0.693888
    14  O   -0.773593
    15  N   -0.931714
    16  H    0.407225
    17  O   -0.365864
    18  O   -0.603501
    19  C   -0.389351
    20  H    0.249858
    21  H    0.246560
    22  H    0.246546
 Sum of Mulliken charges =  -1.00000

 Dipole moment (field-independent basis, Debye):
    X=             18.8413    Y=              0.1291    Z=              0.7373  Tot=             18.8561
 Quadrupole moment (field-independent basis, Debye-Ang):
   XX=           -153.2369   YY=            -94.7211   ZZ=           -101.6352
   XY=            -22.0748   XZ=             -1.4947   YZ=              4.0100

  Exact polarizability:     251.592       1.631     203.157      -5.236      -0.659     133.654
 Approx polarizability:     193.934       2.258     181.870      -3.204      -0.705     119.012

                      1                      2                      3
                      A                      A                      A
 Frequencies --     31.1302                44.1112                61.1907
 Red. masses --      6.3235                 5.0103                 6.2550
 Frc consts  --      0.0036                 0.0057                 0.0138
 IR Inten    --      1.3566                 1.9965                 7.2014

                      4                      5                      6
                      A                      A                      A
 Frequencies --    117.1211               134.0989               196.6790
 Red. masses --      6.0035                 4.0089                 3.9556
 Frc consts  --      0.0485                 0.0425                 0.0902
 IR Inten    --      7.2849                 9.4743                 8.9930

                      7                      8                      9
                      A                      A                      A
 Frequencies --    203.7734               212.5325               237.3705
 Red. masses --      1.4346                 2.9192                 9.8436
 Frc consts  --      0.0351                 0.0777                 0.3268
 IR Inten    --      2.1908                 4.9824                11.4190

                     10                     11                     12
                      A                      A                      A
 Frequencies --    295.4579               338.2323               356.3330
 Red. masses --      2.5036                 5.1701                 4.5468
 Frc consts  --      0.1288                 0.3485                 0.3401
 IR Inten    --     51.5265                27.3251                47.7942

                     13                     14                     15
                      A                      A                      A
 Frequencies --    410.3521               425.3188               446.5263
 Red. masses --      2.8887                 3.6835                 3.3157
 Frc consts  --      0.2866                 0.3926                 0.3895
 IR Inten    --      0.8338                83.3009                12.6992

                     16                     17                     18
                      A                      A                      A
 Frequencies --    478.9661               485.5859               506.6906
 Red. masses --      5.7590                 3.8517                 5.6329
 Frc consts  --      0.7784                 0.5351                 0.8520
 IR Inten    --      2.5692               172.4330                40.3684

                     19                     20                     21
                      A                      A                      A
 Frequencies --    546.0417               603.0084               638.0817
 Red. masses --      4.5875                12.0264                 7.0932
 Frc consts  --      0.8059                 2.5765                 1.7016
 IR Inten    --     95.0475               218.3983                 1.6794

                     22                     23                     24
                      A                      A                      A
 Frequencies --    720.4014               742.3738               790.7321
 Red. masses --      3.6541                 6.9103                 3.7861
 Frc consts  --      1.1173                 2.2438                 1.3948
 IR Inten    --     84.4449                75.2128                37.2429

                     25                     26                     27
                      A                      A                      A
 Frequencies --    853.0518               871.5828               885.3494
 Red. masses --      5.5238                 1.2517                 1.8903
 Frc consts  --      2.3683                 0.5602                 0.8730
 IR Inten    --     19.2811                 0.0412                29.7867

                     28                     29                     30
                      A                      A                      A
 Frequencies --    959.9569              1010.5937              1014.2525
 Red. masses --     13.0955                 1.4080                 6.0997
 Frc consts  --      7.1101                 0.8472                 3.6970
 IR Inten    --    405.2751                 0.4922                31.0548

                     31                     32                     33
                      A                      A                      A
 Frequencies --   1020.7144              1038.3295              1070.8751
 Red. masses --      1.3795                 3.1265                 4.6875
 Frc consts  --      0.8468                 1.9860                 3.1672
 IR Inten    --      0.0620                22.7647               676.6202

                     34                     35                     36
                      A                      A                      A
 Frequencies --   1119.0446              1134.8188              1140.1137
 Red. masses --      2.3924                 1.3647                 3.0685
 Frc consts  --      1.7651                 1.0355                 2.3500
 IR Inten    --    276.8271                41.1235               114.1304

                     37                     38                     39
                      A                      A                      A
 Frequencies --   1165.9688              1185.9286              1191.2796
 Red. masses --      3.0551                 1.2798                 2.7069
 Frc consts  --      2.4471                 1.0605                 2.2634
 IR Inten    --     94.4466                 2.4022               424.3573

                     40                     41                     42
                      A                      A                      A
 Frequencies --   1197.8309              1234.9118              1320.9326
 Red. masses --      1.2275                 1.6651                 1.9332
 Frc consts  --      1.0376                 1.4961                 1.9874
 IR Inten    --     89.2160                58.6734               432.7000

                     43                     44                     45
                      A                      A                      A
 Frequencies --   1330.0850              1349.4906              1442.9268
 Red. masses --      2.3102                 6.8670                 3.2478
 Frc consts  --      2.4080                 7.3681                 3.9841
 IR Inten    --    396.2556                54.8168                59.0731

                     46                     47                     48
                      A                      A                      A
 Frequencies --   1491.5188              1498.2425              1504.4976
 Red. masses --      1.2473                 1.0435                 1.0428
 Frc consts  --      1.6348                 1.3801                 1.3907
 IR Inten    --     64.8408                16.8101                23.5086

                     49                     50                     51
                      A                      A                      A
 Frequencies --   1545.6224              1655.4293              1681.0528
 Red. masses --      2.5372                 7.6290                 6.3397
 Frc consts  --      3.5712                12.3179                10.5555
 IR Inten    --     14.2067                25.5591                53.5511

                     52                     53                     54
                      A                      A                      A
 Frequencies --   1753.6102              3116.2017              3201.9363
 Red. masses --     11.6400                 1.0302                 1.1089
 Frc consts  --     21.0897                 5.8942                 6.6986
 IR Inten    --    896.4044                28.8470                18.5799

                     55                     56                     57
                      A                      A                      A
 Frequencies --   3235.2095              3237.9926              3250.6835
 Red. masses --      1.1072                 1.0900                 1.0898
 Frc consts  --      6.8276                 6.7335                 6.7850
 IR Inten    --     12.6023                 0.1481                 0.4853

                     58                     59                     60
                      A                      A                      A
 Frequencies --   3253.1351              3263.1623              3503.0282
 Red. masses --      1.0947                 1.0952                 1.0734
 Frc consts  --      6.8256                 6.8710                 7.7603
 IR Inten    --      0.6903                 0.5923                40.0746

 - Thermochemistry -
 -------------------
 Temperature   298.150 Kelvin.  Pressure   1.00000 Atm.
 Atom     1 has atomic number  6 and mass  12.00000

 Molecular mass:   214.01740 amu.
 Principal axes and moments of inertia in atomic units:
                           1         2         3
     Eigenvalues --   888.095076827.677437338.12032
           X            0.99995  -0.01004  -0.00264
           Y            0.01008   0.99988   0.01191
           Z            0.00252  -0.01193   0.99993
 This molecule is an asymmetric top.
 Rotational symmetry number  1.
 Warning -- assumption of classical behavior for rotation
           may cause significant error
 Rotational temperatures (Kelvin)      0.09753     0.01269     0.01180
 Rotational constants (GHZ):           2.03215     0.26433     0.24594
 Zero-point vibrational energy     417206.4 (Joules/Mol)
                                   99.71473 (Kcal/Mol)
 Warning -- explicit consideration of  20 degrees of freedom as
           vibrations may cause significant error
 Vibrational temperatures:     44.79    63.47    88.04   168.51   192.94
          (Kelvin)            282.98   293.18   305.79   341.52   425.10
                              486.64   512.68   590.41   611.94   642.45
                              689.13   698.65   729.01   785.63   867.59
                              918.06  1036.50  1068.11  1137.69  1227.35
                             1254.01  1273.82  1381.16  1454.02  1459.28
                             1468.58  1493.92  1540.75  1610.06  1632.75
                             1640.37  1677.57  1706.29  1713.99  1723.41
                             1776.76  1900.53  1913.70  1941.62  2076.05
                             2145.96  2155.64  2164.64  2223.81  2381.79
                             2418.66  2523.05  4483.52  4606.87  4654.74
                             4658.75  4677.01  4680.54  4694.96  5040.08

 Zero-point correction=                           0.158906 (Hartree/Particle)
 Thermal correction to Energy=                    0.171888
 Thermal correction to Enthalpy=                  0.172832
 Thermal correction to Gibbs Free Energy=         0.117882
 Sum of electronic and zero-point Energies=          -1063.167512
 Sum of electronic and thermal Energies=             -1063.154530
 Sum of electronic and thermal Enthalpies=           -1063.153586
 Sum of electronic and thermal Free Energies=        -1063.208535

                     E (Thermal)             CV                S
                      KCal/Mol        Cal/Mol-Kelvin    Cal/Mol-Kelvin
 Total                  107.861             47.732            115.651
 Electronic               0.000              0.000              0.000
 Translational            0.889              2.981             41.986
 Rotational               0.889              2.981             32.165
 Vibrational            106.084             41.771             41.500
 Vibration     1          0.594              1.983              5.756
 Vibration     2          0.595              1.980              5.065
 Vibration     3          0.597              1.973              4.418
 Vibration     4          0.608              1.935              3.147
 Vibration     5          0.613              1.919              2.886
 Vibration     6          0.636              1.845              2.164
 Vibration     7          0.639              1.835              2.099
 Vibration     8          0.644              1.822              2.022
 Vibration     9          0.656              1.783              1.823
 Vibration    10          0.690              1.682              1.443
 Vibration    11          0.719              1.599              1.220
 Vibration    12          0.732              1.562              1.138
 Vibration    13          0.775              1.448              0.925
 Vibration    14          0.787              1.415              0.874
 Vibration    15          0.806              1.369              0.806
 Vibration    16          0.835              1.297              0.713
 Vibration    17          0.842              1.282              0.695
 Vibration    18          0.862              1.235              0.642
 Vibration    19          0.901              1.148              0.552
 Vibration    20          0.961              1.025              0.445

 Optimization completed.
    -- Stationary point found.
 Normal termination of Gaussian 16 at Sun May 22 13:42:09 2022.
