 Gaussian 16, Revision C.01,
 Gaussian 16:  ES64L-G16RevC.01  3-Jul-2019

 -----------------------------------------------------
 #m062X/gen 6D OPT Freq=noraman SCRF=(SMD,Solvent=h2o)
 -----------------------------------------------------

 -------------------
 A.14.smd.a2b3d2.smd
 -------------------
 Symbolic Z-matrix:
 Charge = -1 Multiplicity = 1

 SCF Done:  E(RM062X) =  -1063.14779870     A.U. after   17 cycles
 SCF Done:  E(RM062X) =  -1063.22699128     A.U. after   15 cycles
 SCF Done:  E(RM062X) =  -1063.26934041     A.U. after   15 cycles
 SCF Done:  E(RM062X) =  -1063.28257896     A.U. after   14 cycles
 SCF Done:  E(RM062X) =  -1063.29860327     A.U. after   15 cycles
 SCF Done:  E(RM062X) =  -1063.30431736     A.U. after   14 cycles
 SCF Done:  E(RM062X) =  -1063.31008675     A.U. after   15 cycles
 SCF Done:  E(RM062X) =  -1063.31226568     A.U. after   14 cycles
 SCF Done:  E(RM062X) =  -1063.31578187     A.U. after   15 cycles
 SCF Done:  E(RM062X) =  -1063.31717496     A.U. after   15 cycles
 SCF Done:  E(RM062X) =  -1063.32227678     A.U. after   14 cycles
 SCF Done:  E(RM062X) =  -1063.32228135     A.U. after   11 cycles
 SCF Done:  E(RM062X) =  -1063.32228333     A.U. after   12 cycles
 SCF Done:  E(RM062X) =  -1063.32228417     A.U. after   10 cycles
 SCF Done:  E(RM062X) =  -1063.32228475     A.U. after   10 cycles
 SCF Done:  E(RM062X) =  -1063.32228545     A.U. after   10 cycles
 SCF Done:  E(RM062X) =  -1063.32228575     A.U. after   10 cycles
 SCF Done:  E(RM062X) =  -1063.32228582     A.U. after    9 cycles
 SCF Done:  E(RM062X) =  -1063.32228582     A.U. after   10 cycles
 Optimization completed.
    -- Stationary point found.
 Normal termination of Gaussian 16 at Sun May 22 14:18:28 2022.

 ------------------------------------------------------------------
 #N Geom=AllCheck Guess=TCheck SCRF=Check GenChk RM062X/ChkBas Freq
 ------------------------------------------------------------------

 Structure from the checkpoint file:  "/jobfs/40912833.gadi-pbs/Gau-2510837.chk"
 -------------------
 A.14.smd.a2b3d2.smd
 -------------------
 Charge = -1 Multiplicity = 1

                         Standard orientation:
 ---------------------------------------------------------------------
 Center     Atomic      Atomic             Coordinates (Angstroms)
 Number     Number       Type             X           Y           Z
 ---------------------------------------------------------------------
      1          6           0       -0.895761   -0.309676   -0.026830
      2          6           0       -0.487602    1.027302    0.064101
      3          6           0        0.942902    1.428006    0.231512
      4          6           0       -1.436080    2.049426    0.001403
      5          1           0       -1.109733    3.081820    0.090822
      6          6           0       -2.782278    1.745528   -0.189948
      7          6           0       -3.183067    0.415650   -0.300960
      8          1           0       -4.231145    0.171290   -0.444708
      9          6           0       -2.242856   -0.610784   -0.208829
     10          1           0       -2.557039   -1.648285   -0.260660
     11         16           0        0.288673   -1.676347    0.126333
     12          8           0        1.223904   -1.181276    1.183346
     13          8           0       -0.542781   -2.830077    0.559708
     14          7           0        0.942114   -2.007357   -1.250875
     15          1           0        1.575761   -1.238485   -1.483321
     16          8           0        1.344538    2.159925    1.116613
     17          8           0        1.717688    0.945425   -0.736087
     18          6           0        3.129170    1.177574   -0.599061
     19          1           0       -3.513391    2.545679   -0.249054
     20          1           0        3.589822    0.670571   -1.445019
     21          1           0        3.480974    0.751941    0.343331
     22          1           0        3.337835    2.248393   -0.633556
 ---------------------------------------------------------------------

 SCF Done:  E(RM062X) =  -1063.32228582     A.U. after    1 cycles

 The electronic state is 1-A.
 Alpha  occ. eigenvalues --  -90.13692 -19.70511 -19.65568 -19.62110 -19.62059
 Alpha  occ. eigenvalues --  -14.71802 -10.70548 -10.59516 -10.58861 -10.58627
 Alpha  occ. eigenvalues --  -10.57032 -10.56755 -10.56532 -10.56393  -8.44549
 Alpha  occ. eigenvalues --   -6.36791  -6.36700  -6.36624  -1.25233  -1.20890
 Alpha  occ. eigenvalues --   -1.15636  -1.09307  -0.98360  -0.96061  -0.88417
 Alpha  occ. eigenvalues --   -0.86417  -0.82405  -0.73901  -0.71537  -0.67523
 Alpha  occ. eigenvalues --   -0.65390  -0.62748  -0.58554  -0.57852  -0.57585
 Alpha  occ. eigenvalues --   -0.55785  -0.54347  -0.53296  -0.51709  -0.51368
 Alpha  occ. eigenvalues --   -0.49534  -0.47300  -0.45361  -0.44450  -0.43724
 Alpha  occ. eigenvalues --   -0.42374  -0.41806  -0.39528  -0.38621  -0.37752
 Alpha  occ. eigenvalues --   -0.37265  -0.36238  -0.33357  -0.32727  -0.32058
 Alpha  occ. eigenvalues --   -0.28912
 Alpha virt. eigenvalues --   -0.01369   0.00508   0.02218   0.03478   0.03646
 Alpha virt. eigenvalues --    0.04463   0.04908   0.05079   0.05687   0.06185
 Alpha virt. eigenvalues --    0.06541   0.06972   0.07784   0.08093   0.09359

 Mulliken charges:
               1
     1  C   -1.156108
     2  C    0.284239
     3  C    0.362345
     4  C   -0.180273
     5  H    0.272342
     6  C   -0.255130
     7  C   -0.022440
     8  H    0.258473
     9  C   -0.106774
    10  H    0.270655
    11  S    1.604731
    12  O   -0.735216
    13  O   -0.770195
    14  N   -0.968965
    15  H    0.433769
    16  O   -0.529539
    17  O   -0.354837
    18  C   -0.427407
    19  H    0.260970
    20  H    0.253680
    21  H    0.254151
    22  H    0.251529
 Sum of Mulliken charges =  -1.00000

 Dipole moment (field-independent basis, Debye):
    X=             -3.7468    Y=             11.7399    Z=             -4.2823  Tot=             13.0461
 Quadrupole moment (field-independent basis, Debye-Ang):
   XX=            -74.9836   YY=           -123.4184   ZZ=           -106.1939
   XY=              0.2692   XZ=             -5.6990   YZ=             -5.8623

  Exact polarizability:     224.940      -7.743     209.486       3.849      13.696     146.276
 Approx polarizability:     184.255      -0.984     177.709       4.172      12.311     130.968

                      1                      2                      3
                      A                      A                      A
 Frequencies --     61.9219                80.7595                93.6327
 Red. masses --      6.3993                 4.4672                 4.2532
 Frc consts  --      0.0145                 0.0172                 0.0220
 IR Inten    --      7.5874                 6.3227                 6.6089

                      4                      5                      6
                      A                      A                      A
 Frequencies --    100.6775               136.6469               179.8763
 Red. masses --      5.4913                 5.2077                 1.2324
 Frc consts  --      0.0328                 0.0573                 0.0235
 IR Inten    --      1.2628                 1.2306                 1.3950

                      7                      8                      9
                      A                      A                      A
 Frequencies --    203.6340               237.4020               250.0616
 Red. masses --      4.1765                 4.9344                 6.3968
 Frc consts  --      0.1020                 0.1639                 0.2357
 IR Inten    --      6.4536                 2.1599                 2.7552

                     10                     11                     12
                      A                      A                      A
 Frequencies --    295.9728               307.2035               341.2588
 Red. masses --      6.4097                 3.9887                 4.8883
 Frc consts  --      0.3308                 0.2218                 0.3354
 IR Inten    --      8.4677                34.1371                59.1550

                     13                     14                     15
                      A                      A                      A
 Frequencies --    376.6186               395.5946               454.4680
 Red. masses --      5.1374                 3.2360                 4.4146
 Frc consts  --      0.4293                 0.2984                 0.5372
 IR Inten    --      1.0025                35.3061                65.7609

                     16                     17                     18
                      A                      A                      A
 Frequencies --    483.2892               501.1551               543.3844
 Red. masses --      3.9548                 2.3006                 6.0907
 Frc consts  --      0.5442                 0.3404                 1.0596
 IR Inten    --     40.6517               140.5716                81.7660

                     19                     20                     21
                      A                      A                      A
 Frequencies --    569.6340               583.8916               665.4954
 Red. masses --      4.2468                11.6237                 6.5448
 Frc consts  --      0.8119                 2.3349                 1.7078
 IR Inten    --     14.3865               219.4953                15.8892

                     22                     23                     24
                      A                      A                      A
 Frequencies --    724.3557               742.1929               775.6777
 Red. masses --      5.7549                 5.7827                 1.7760
 Frc consts  --      1.7791                 1.8768                 0.6296
 IR Inten    --     46.8463                51.2253                90.7661

                     25                     26                     27
                      A                      A                      A
 Frequencies --    805.1133               852.3516               913.6910
 Red. masses --      2.7229                 5.1013                 1.3941
 Frc consts  --      1.0399                 2.1836                 0.6857
 IR Inten    --     41.0891                20.2874                 1.7562

                     28                     29                     30
                      A                      A                      A
 Frequencies --    959.1558               996.2048              1014.9505
 Red. masses --     13.0860                 1.4593                 5.4057
 Frc consts  --      7.0931                 0.8533                 3.2809
 IR Inten    --    294.1476                 9.7902                35.4241

                     31                     32                     33
                      A                      A                      A
 Frequencies --   1034.9340              1071.1591              1076.5872
 Red. masses --      1.3291                 3.9004                 3.7957
 Frc consts  --      0.8388                 2.6368                 2.5920
 IR Inten    --      0.0949               254.2212               473.0409

                     34                     35                     36
                      A                      A                      A
 Frequencies --   1089.7459              1122.9095              1162.8066
 Red. masses --      3.3423                 2.5916                 1.6483
 Frc consts  --      2.3386                 1.9253                 1.3131
 IR Inten    --    100.5636               305.7307                81.8388

                     37                     38                     39
                      A                      A                      A
 Frequencies --   1171.7596              1176.9231              1183.8718
 Red. masses --      2.0856                 1.2886                 1.2880
 Frc consts  --      1.6871                 1.0517                 1.0636
 IR Inten    --     55.2624                10.3790                 1.5676

                     40                     41                     42
                      A                      A                      A
 Frequencies --   1193.8491              1234.3757              1284.4943
 Red. masses --      2.3695                 1.6617                 1.6081
 Frc consts  --      1.9898                 1.4917                 1.5632
 IR Inten    --    454.0632                27.1676               123.1845

                     43                     44                     45
                      A                      A                      A
 Frequencies --   1335.7807              1343.8009              1482.4081
 Red. masses --      7.2887                 3.5217                 1.8718
 Frc consts  --      7.6625                 3.7469                 2.4235
 IR Inten    --     50.9254               576.3574                20.0333

                     46                     47                     48
                      A                      A                      A
 Frequencies --   1492.3005              1496.4390              1502.3533
 Red. masses --      1.4540                 1.0448                 1.0557
 Frc consts  --      1.9078                 1.3785                 1.4040
 IR Inten    --     41.9928                17.1563                29.1288

                     49                     50                     51
                      A                      A                      A
 Frequencies --   1523.2917              1653.2085              1674.5165
 Red. masses --      2.6781                 6.7473                 6.5505
 Frc consts  --      3.6613                10.8651                10.8218
 IR Inten    --     18.0400                 4.8293                15.5847

                     52                     53                     54
                      A                      A                      A
 Frequencies --   1771.1544              3113.3018              3199.7479
 Red. masses --     11.8497                 1.0302                 1.1088
 Frc consts  --     21.9013                 5.8831                 6.6884
 IR Inten    --    829.8076                29.0902                17.1714

                     55                     56                     57
                      A                      A                      A
 Frequencies --   3231.7919              3233.0890              3239.6427
 Red. masses --      1.1072                 1.0887                 1.0909
 Frc consts  --      6.8136                 6.7051                 6.7460
 IR Inten    --     10.6500                 0.0446                 4.4336

                     58                     59                     60
                      A                      A                      A
 Frequencies --   3249.9606              3255.5588              3515.6692
 Red. masses --      1.0938                 1.0977                 1.0725
 Frc consts  --      6.8068                 6.8547                 7.8106
 IR Inten    --      1.3081                10.5311                58.1323

 - Thermochemistry -
 -------------------
 Temperature   298.150 Kelvin.  Pressure   1.00000 Atm.
 Atom     1 has atomic number  6 and mass  12.00000

 Molecular mass:   214.01740 amu.
 Principal axes and moments of inertia in atomic units:
                           1         2         3
     Eigenvalues --  2324.426902599.698854277.40879
           X            0.99971   0.02231  -0.00930
           Y           -0.02232   0.99975  -0.00097
           Z            0.00927   0.00118   0.99996
 This molecule is an asymmetric top.
 Rotational symmetry number  1.
 Warning -- assumption of classical behavior for rotation
           may cause significant error
 Rotational temperatures (Kelvin)      0.03726     0.03332     0.02025
 Rotational constants (GHZ):           0.77642     0.69421     0.42192
 Zero-point vibrational energy     417279.6 (Joules/Mol)
                                   99.73222 (Kcal/Mol)
 Warning -- explicit consideration of  20 degrees of freedom as
           vibrations may cause significant error
 Vibrational temperatures:     89.09   116.19   134.72   144.85   196.60
          (Kelvin)            258.80   292.98   341.57   359.78   425.84
                              442.00   491.00   541.87   569.17   653.88
                              695.35   721.05   781.81   819.58   840.09
                              957.50  1042.19  1067.85  1116.03  1158.38
                             1226.34  1314.60  1380.01  1433.32  1460.29
                             1489.04  1541.16  1548.97  1567.90  1615.62
                             1673.02  1685.90  1693.33  1703.33  1717.68
                             1775.99  1848.10  1921.89  1933.43  2132.85
                             2147.09  2153.04  2161.55  2191.68  2378.60
                             2409.26  2548.30  4479.35  4603.72  4649.83
                             4651.69  4661.12  4675.97  4684.02  5058.26

 Zero-point correction=                           0.158933 (Hartree/Particle)
 Thermal correction to Energy=                    0.171774
 Thermal correction to Enthalpy=                  0.172718
 Thermal correction to Gibbs Free Energy=         0.119438
 Sum of electronic and zero-point Energies=          -1063.163352
 Sum of electronic and thermal Energies=             -1063.150512
 Sum of electronic and thermal Enthalpies=           -1063.149567
 Sum of electronic and thermal Free Energies=        -1063.202847

                     E (Thermal)             CV                S
                      KCal/Mol        Cal/Mol-Kelvin    Cal/Mol-Kelvin
 Total                  107.790             47.764            112.137
 Electronic               0.000              0.000              0.000
 Translational            0.889              2.981             41.986
 Rotational               0.889              2.981             31.625
 Vibrational            106.013             41.802             38.526
 Vibration     1          0.597              1.972              4.395
 Vibration     2          0.600              1.962              3.872
 Vibration     3          0.603              1.954              3.583
 Vibration     4          0.604              1.949              3.441
 Vibration     5          0.614              1.917              2.850
 Vibration     6          0.629              1.867              2.330
 Vibration     7          0.639              1.835              2.100
 Vibration     8          0.656              1.783              1.822
 Vibration     9          0.663              1.763              1.730
 Vibration    10          0.690              1.681              1.440
 Vibration    11          0.697              1.660              1.377
 Vibration    12          0.721              1.593              1.206
 Vibration    13          0.747              1.520              1.053
 Vibration    14          0.762              1.480              0.979
 Vibration    15          0.813              1.351              0.782
 Vibration    16          0.839              1.287              0.701
 Vibration    17          0.857              1.247              0.655
 Vibration    18          0.899              1.154              0.558
 Vibration    19          0.926              1.097              0.505
 Vibration    20          0.941              1.066              0.478

 Optimization completed.
    -- Stationary point found.
 Normal termination of Gaussian 16 at Sun May 22 14:24:02 2022.
