 Gaussian 16, Revision C.01,
 Gaussian 16:  ES64L-G16RevC.01  3-Jul-2019

 -----------------------------------------------------
 #m062X/gen 6D OPT Freq=noraman SCRF=(SMD,Solvent=h2o)
 -----------------------------------------------------

 ---------------
 A.15.smd.a1.smd
 ---------------
 Symbolic Z-matrix:
 Charge = -1 Multiplicity = 1

 SCF Done:  E(RM062X) =  -1043.47312644     A.U. after   16 cycles
 Optimization completed.
    -- Stationary point found.
 Normal termination of Gaussian 16 at Sun May 22 14:03:00 2022.

 ------------------------------------------------------------------
 #N Geom=AllCheck Guess=TCheck SCRF=Check GenChk RM062X/ChkBas Freq
 ------------------------------------------------------------------

 Structure from the checkpoint file:  "/jobfs/40913343.gadi-pbs/Gau-674578.chk"
 ---------------
 A.15.smd.a1.smd
 ---------------
 Charge = -1 Multiplicity = 1

                         Standard orientation:
 ---------------------------------------------------------------------
 Center     Atomic      Atomic             Coordinates (Angstroms)
 Number     Number       Type             X           Y           Z
 ---------------------------------------------------------------------
      1          6           0        1.227408   -0.006468   -0.055638
      2          6           0        0.612517    1.233595    0.126473
      3          1           0        1.210269    2.129087    0.276512
      4          6           0       -0.773845    1.318572    0.108753
      5          1           0       -1.263118    2.278210    0.243102
      6          6           0       -1.549720    0.168060   -0.074988
      7          6           0       -3.040855    0.325947   -0.091006
      8          6           0       -0.923195   -1.067306   -0.256294
      9          1           0       -1.503834   -1.968339   -0.432773
     10          6           0        0.468582   -1.156261   -0.248070
     11          1           0        0.955977   -2.113226   -0.402432
     12         16           0        3.027265   -0.095476    0.023371
     13          8           0        3.368290   -1.472407   -0.421843
     14          8           0        3.462699    0.973341   -0.927554
     15          7           0        3.501918    0.103376    1.498752
     16          1           0        3.365499    1.088203    1.743525
     17          7           0       -3.779434   -0.736135    0.255931
     18          8           0       -3.563902    1.408712   -0.409997
     19          6           0       -5.231391   -0.675490    0.260476
     20          1           0       -5.614134   -1.655632    0.541279
     21          1           0       -5.605520   -0.413451   -0.732429
     22          1           0       -5.587294    0.069488    0.977883
     23          1           0       -3.325187   -1.578472    0.585541
 ---------------------------------------------------------------------

 SCF Done:  E(RM062X) =  -1043.47312644     A.U. after    1 cycles

 The electronic state is 1-A.
 Alpha  occ. eigenvalues --  -90.13537 -19.62741 -19.62146 -19.61988 -14.79703
 Alpha  occ. eigenvalues --  -14.71918 -10.66757 -10.58331 -10.57682 -10.57220
 Alpha  occ. eigenvalues --  -10.57031 -10.56855 -10.56762 -10.56704  -8.44425
 Alpha  occ. eigenvalues --   -6.36669  -6.36574  -6.36495  -1.20837  -1.16966
 Alpha  occ. eigenvalues --   -1.09245  -1.03851  -0.98085  -0.95993  -0.87905
 Alpha  occ. eigenvalues --   -0.85811  -0.80543  -0.73951  -0.70374  -0.68103
 Alpha  occ. eigenvalues --   -0.65939  -0.63038  -0.59171  -0.55940  -0.55363
 Alpha  occ. eigenvalues --   -0.53953  -0.52814  -0.52679  -0.51122  -0.50845
 Alpha  occ. eigenvalues --   -0.49754  -0.47093  -0.45853  -0.45270  -0.44458
 Alpha  occ. eigenvalues --   -0.42125  -0.41291  -0.39490  -0.37477  -0.36440
 Alpha  occ. eigenvalues --   -0.35168  -0.33596  -0.32907  -0.32220  -0.31967
 Alpha  occ. eigenvalues --   -0.28837
 Alpha virt. eigenvalues --   -0.02063   0.00881   0.01762   0.02907   0.04010
 Alpha virt. eigenvalues --    0.04399   0.04771   0.05197   0.05478   0.06110
 Alpha virt. eigenvalues --    0.06195   0.07492   0.07590   0.08716   0.08780

 Mulliken charges:
               1
     1  C   -1.573635
     2  C    0.739371
     3  H    0.269650
     4  C   -0.177420
     5  H    0.266737
     6  C    0.264618
     7  C    0.624019
     8  C   -0.211376
     9  H    0.260915
    10  C   -0.780112
    11  H    0.271253
    12  S    1.553739
    13  O   -0.786171
    14  O   -0.678936
    15  N   -0.921259
    16  H    0.405629
    17  N   -0.553895
    18  O   -0.709677
    19  C   -0.490201
    20  H    0.248416
    21  H    0.248387
    22  H    0.248922
    23  H    0.481028
 Sum of Mulliken charges =  -1.00000

 Dipole moment (field-independent basis, Debye):
    X=            -18.8048    Y=             -3.0076    Z=              2.5012  Tot=             19.2074
 Quadrupole moment (field-independent basis, Debye-Ang):
   XX=           -160.1563   YY=            -93.6829   ZZ=           -103.1373
   XY=             30.6721   XZ=             -5.4639   YZ=              6.5272

  Exact polarizability:     255.716       2.573     210.049       6.166       1.714     142.094
 Approx polarizability:     197.096       1.081     187.384       4.329       1.642     126.173

                      1                      2                      3
                      A                      A                      A
 Frequencies --     31.6127                57.9094                69.4498
 Red. masses --      5.8857                 5.6313                 3.6378
 Frc consts  --      0.0035                 0.0111                 0.0103
 IR Inten    --      5.7203                10.8887                10.0817

                      4                      5                      6
                      A                      A                      A
 Frequencies --    108.9042               131.2469               146.8424
 Red. masses --      4.0495                 1.7911                 2.0301
 Frc consts  --      0.0283                 0.0182                 0.0258
 IR Inten    --      9.0684                14.6244                 2.1008

                      7                      8                      9
                      A                      A                      A
 Frequencies --    191.2715               215.1154               239.2945
 Red. masses --      6.2535                 4.6858                 7.8586
 Frc consts  --      0.1348                 0.1278                 0.2651
 IR Inten    --     10.7643                 8.1232                14.0489

                     10                     11                     12
                      A                      A                      A
 Frequencies --    295.8128               312.0832               343.9309
 Red. masses --      2.8602                 3.5055                 5.2385
 Frc consts  --      0.1475                 0.2012                 0.3651
 IR Inten    --     21.5189                45.7148                45.9000

                     13                     14                     15
                      A                      A                      A
 Frequencies --    411.2163               429.0462               444.1626
 Red. masses --      2.9597                 3.6825                 2.8124
 Frc consts  --      0.2949                 0.3994                 0.3269
 IR Inten    --      6.1193                94.3392                46.4391

                     16                     17                     18
                      A                      A                      A
 Frequencies --    462.5099               490.8489               512.1307
 Red. masses --      6.0917                 3.8696                 6.8402
 Frc consts  --      0.7678                 0.5493                 1.0570
 IR Inten    --      9.0171               160.2477                25.8778

                     19                     20                     21
                      A                      A                      A
 Frequencies --    533.0135               556.1317               602.6800
 Red. masses --      1.2190                 3.6362                10.8630
 Frc consts  --      0.2040                 0.6626                 2.3247
 IR Inten    --    129.1080               132.0482               208.8763

                     22                     23                     24
                      A                      A                      A
 Frequencies --    639.3476               721.0306               740.0464
 Red. masses --      6.8779                 3.6705                 6.2547
 Frc consts  --      1.6565                 1.1243                 2.0183
 IR Inten    --      0.6335                52.4636                77.0083

                     25                     26                     27
                      A                      A                      A
 Frequencies --    788.1935               856.6350               868.8863
 Red. masses --      3.7991                 3.9187                 1.2702
 Frc consts  --      1.3906                 1.6943                 0.5650
 IR Inten    --     14.4815                24.2052                 2.9942

                     28                     29                     30
                      A                      A                      A
 Frequencies --    878.9927               959.7780              1003.9792
 Red. masses --      1.8202                12.6346                 1.3779
 Frc consts  --      0.8286                 6.8573                 0.8183
 IR Inten    --     40.6763               386.1197                 2.0748

                     31                     32                     33
                      A                      A                      A
 Frequencies --   1016.0547              1029.2990              1053.3758
 Red. masses --      1.3831                 3.7379                 3.0782
 Frc consts  --      0.8413                 2.3332                 2.0124
 IR Inten    --      0.0663                17.6324                16.3122

                     34                     35                     36
                      A                      A                      A
 Frequencies --   1070.4917              1119.5353              1137.4449
 Red. masses --      4.9308                 2.4223                 1.9033
 Frc consts  --      3.3291                 1.7887                 1.4508
 IR Inten    --    683.6251               291.7310                80.7430

                     37                     38                     39
                      A                      A                      A
 Frequencies --   1148.8753              1160.8022              1190.7439
 Red. masses --      1.8166                 1.2962                 2.6066
 Frc consts  --      1.4127                 1.0291                 2.1775
 IR Inten    --     34.3769                 3.1700               397.6326

                     40                     41                     42
                      A                      A                      A
 Frequencies --   1197.3348              1199.7348              1217.1142
 Red. masses --      1.9289                 1.7373                 1.5876
 Frc consts  --      1.6292                 1.4733                 1.3856
 IR Inten    --     10.3907                 4.1834                14.2800

                     43                     44                     45
                      A                      A                      A
 Frequencies --   1331.0332              1340.7459              1365.8371
 Red. masses --      1.6017                 4.1251                 1.8185
 Frc consts  --      1.6719                 4.3690                 1.9988
 IR Inten    --     22.6380                15.3035               133.3020

                     46                     47                     48
                      A                      A                      A
 Frequencies --   1438.3673              1465.6013              1493.0796
 Red. masses --      3.0092                 1.2396                 1.0391
 Frc consts  --      3.6681                 1.5687                 1.3648
 IR Inten    --      7.3043                70.4287                17.8959

                     49                     50                     51
                      A                      A                      A
 Frequencies --   1513.1669              1542.2308              1602.2988
 Red. masses --      1.0899                 2.2160                 2.5289
 Frc consts  --      1.4704                 3.1054                 3.8254
 IR Inten    --     20.7228                69.4203               585.3158

                     52                     53                     54
                      A                      A                      A
 Frequencies --   1639.5192              1677.2258              1686.1028
 Red. masses --      7.4227                 7.7521                 5.9795
 Frc consts  --     11.7556                12.8485                10.0157
 IR Inten    --    377.1117               334.7242               190.0418

                     55                     56                     57
                      A                      A                      A
 Frequencies --   3101.5876              3167.6780              3219.4819
 Red. masses --      1.0356                 1.1056                 1.1032
 Frc consts  --      5.8694                 6.5364                 6.7372
 IR Inten    --     39.4599                25.2454                13.0565

                     58                     59                     60
                      A                      A                      A
 Frequencies --   3228.8717              3237.9972              3251.4185
 Red. masses --      1.0907                 1.0902                 1.0937
 Frc consts  --      6.6994                 6.7347                 6.8123
 IR Inten    --      0.4824                 2.8968                 1.3835

                     61                     62                     63
                      A                      A                      A
 Frequencies --   3256.6791              3501.7147              3649.5982
 Red. masses --      1.0940                 1.0734                 1.0795
 Frc consts  --      6.8362                 7.7550                 8.4717
 IR Inten    --      2.0663                39.9765               157.8162

 - Thermochemistry -
 -------------------
 Temperature   298.150 Kelvin.  Pressure   1.00000 Atm.
 Atom     1 has atomic number  6 and mass  12.00000

 Molecular mass:   213.03339 amu.
 Principal axes and moments of inertia in atomic units:
                           1         2         3
     Eigenvalues --   893.931016909.084447373.44847
           X            0.99992   0.01231   0.00005
           Y           -0.01231   0.99962   0.02484
           Z            0.00026  -0.02484   0.99969
 This molecule is an asymmetric top.
 Rotational symmetry number  1.
 Warning -- assumption of classical behavior for rotation
           may cause significant error
 Rotational temperatures (Kelvin)      0.09689     0.01254     0.01175
 Rotational constants (GHZ):           2.01888     0.26121     0.24476
 Zero-point vibrational energy     450353.0 (Joules/Mol)
                                  107.63695 (Kcal/Mol)
 Warning -- explicit consideration of  21 degrees of freedom as
           vibrations may cause significant error
 Vibrational temperatures:     45.48    83.32    99.92   156.69   188.84
          (Kelvin)            211.27   275.20   309.50   344.29   425.61
                              449.02   494.84   591.65   617.30   639.05
                              665.45   706.22   736.84   766.89   800.15
                              867.12   919.88  1037.40  1064.76  1134.03
                             1232.51  1250.13  1264.67  1380.91  1444.50
                             1461.88  1480.93  1515.57  1540.20  1610.76
                             1636.53  1652.98  1670.14  1713.21  1722.70
                             1726.15  1751.16  1915.06  1929.03  1965.13
                             2069.49  2108.67  2148.21  2177.11  2218.93
                             2305.35  2358.90  2413.15  2425.93  4462.49
                             4557.58  4632.12  4645.63  4658.76  4678.07
                             4685.63  5038.19  5250.96

 Zero-point correction=                           0.171530 (Hartree/Particle)
 Thermal correction to Energy=                    0.184827
 Thermal correction to Enthalpy=                  0.185771
 Thermal correction to Gibbs Free Energy=         0.130458
 Sum of electronic and zero-point Energies=          -1043.301596
 Sum of electronic and thermal Energies=             -1043.288300
 Sum of electronic and thermal Enthalpies=           -1043.287356
 Sum of electronic and thermal Free Energies=        -1043.342668

                     E (Thermal)             CV                S
                      KCal/Mol        Cal/Mol-Kelvin    Cal/Mol-Kelvin
 Total                  115.980             49.092            116.415
 Electronic               0.000              0.000              0.000
 Translational            0.889              2.981             41.972
 Rotational               0.889              2.981             32.188
 Vibrational            114.203             43.130             42.255
 Vibration     1          0.594              1.983              5.726
 Vibration     2          0.596              1.974              4.527
 Vibration     3          0.598              1.969              4.169
 Vibration     4          0.606              1.942              3.288
 Vibration     5          0.612              1.922              2.928
 Vibration     6          0.617              1.906              2.713
 Vibration     7          0.634              1.852              2.215
 Vibration     8          0.645              1.818              2.000
 Vibration     9          0.657              1.780              1.808
 Vibration    10          0.690              1.682              1.440
 Vibration    11          0.700              1.651              1.351
 Vibration    12          0.723              1.588              1.194
 Vibration    13          0.775              1.446              0.922
 Vibration    14          0.790              1.407              0.862
 Vibration    15          0.804              1.374              0.814
 Vibration    16          0.820              1.333              0.759
 Vibration    17          0.847              1.270              0.681
 Vibration    18          0.867              1.223              0.628
 Vibration    19          0.888              1.177              0.581
 Vibration    20          0.912              1.126              0.532
 Vibration    21          0.961              1.026              0.445

 Optimization completed.
    -- Stationary point found.
 Normal termination of Gaussian 16 at Sun May 22 14:08:24 2022.
