 Gaussian 16, Revision C.01,
 Gaussian 16:  ES64L-G16RevC.01  3-Jul-2019

 ----------------------------------------------------------------------
 #m062X/gen 6D OPT Freq=Noraman INT(grid=ultrafine) SCRF=(SMD,Solvent=h
 2o)
 ----------------------------------------------------------------------

 -----
 a2 b1
 -----
 Symbolic Z-matrix:
 Charge = -1 Multiplicity = 1

 SCF Done:  E(RM062X) =  -941.502139948     A.U. after   13 cycles
 SCF Done:  E(RM062X) =  -941.502235150     A.U. after    9 cycles
 SCF Done:  E(RM062X) =  -941.502247642     A.U. after    9 cycles
 SCF Done:  E(RM062X) =  -941.502249278     A.U. after    9 cycles
 Optimization completed.
    -- Stationary point found.
 Normal termination of Gaussian 16 at Thu May 19 20:09:28 2022.

 ------------------------------------------------------------------
 #N Geom=AllCheck Guess=TCheck SCRF=Check GenChk RM062X/ChkBas Freq
 ------------------------------------------------------------------

 Structure from the checkpoint file:  "/jobfs/40665748.gadi-pbs/Gau-1446847.chk"
 -----
 a2 b1
 -----
 Charge = -1 Multiplicity = 1

                         Standard orientation:
 ---------------------------------------------------------------------
 Center     Atomic      Atomic             Coordinates (Angstroms)
 Number     Number       Type             X           Y           Z
 ---------------------------------------------------------------------
      1          6           0       -0.951773    0.030303   -0.016518
      2         16           0        0.903495   -0.047890    0.010613
      3          8           0        1.145229   -0.175178    1.467272
      4          8           0        1.150030   -1.262990   -0.791816
      5          7           0        1.439864    1.217200   -0.690214
      6          1           0        1.432749    1.994622   -0.025542
      7          9           0       -1.377812    1.124553    0.627707
      8          9           0       -1.502153   -1.036359    0.574818
      9          9           0       -1.411051    0.086778   -1.271116
 ---------------------------------------------------------------------

 SCF Done:  E(RM062X) =  -941.502249278     A.U. after    1 cycles

 The electronic state is 1-A.
 Alpha  occ. eigenvalues --  -90.15327 -25.31537 -25.31480 -25.31473 -19.63894
 Alpha  occ. eigenvalues --  -19.63844 -14.73699 -10.81412  -8.46246  -6.38469
 Alpha  occ. eigenvalues --   -6.38407  -6.38325  -1.48080  -1.38849  -1.38800
 Alpha  occ. eigenvalues --   -1.23009  -1.11477  -0.98485  -0.84207  -0.74280
 Alpha  occ. eigenvalues --   -0.70322  -0.70298  -0.65347  -0.58865  -0.58494
 Alpha  occ. eigenvalues --   -0.57120  -0.54822  -0.54407  -0.54182  -0.53319
 Alpha  occ. eigenvalues --   -0.52388  -0.43870  -0.41044  -0.39455  -0.37336
 Alpha  occ. eigenvalues --   -0.34496  -0.32283
 Alpha virt. eigenvalues --    0.02087   0.03977   0.04512   0.04733   0.07408
 Alpha virt. eigenvalues --    0.07772   0.07959   0.11181   0.11841   0.12835
 Alpha virt. eigenvalues --    0.14027   0.15915   0.16468   0.17321   0.19771

 Mulliken charges:
               1
     1  C    0.725336
     2  S    1.190779
     3  O   -0.729519
     4  O   -0.742856
     5  N   -0.958332
     6  H    0.423163
     7  F   -0.308041
     8  F   -0.303965
     9  F   -0.296567
 Sum of Mulliken charges =  -1.00000

 Dipole moment (field-independent basis, Debye):
    X=             -5.0913    Y=              2.5336    Z=              1.0649  Tot=              5.7857
 Quadrupole moment (field-independent basis, Debye-Ang):
   XX=            -63.9117   YY=            -57.1868   ZZ=            -64.7152
   XY=              2.5832   XZ=              2.2155   YZ=              1.7509

  Exact polarizability:      66.266       3.615      71.145      -2.120      -2.634      69.498
 Approx polarizability:      56.184       2.921      64.743      -1.982      -1.934      64.264

                      1                      2                      3
                      A                      A                      A
 Frequencies --     61.2038               186.2675               198.3721
 Red. masses --     13.1646                 8.0894                15.9345
 Frc consts  --      0.0291                 0.1654                 0.3694
 IR Inten    --      1.1589                 8.6936                10.0565

                      4                      5                      6
                      A                      A                      A
 Frequencies --    301.5839               323.5023               341.4380
 Red. masses --     14.9170                 6.0616                11.0725
 Frc consts  --      0.7994                 0.3738                 0.7605
 IR Inten    --      0.0928                24.8609                 7.2235

                      7                      8                      9
                      A                      A                      A
 Frequencies --    437.7784               488.9689               496.5317
 Red. masses --      2.7831                 3.0751                 3.5050
 Frc consts  --      0.3143                 0.4332                 0.5091
 IR Inten    --    111.2776               117.6481               114.9481

                     10                     11                     12
                      A                      A                      A
 Frequencies --    555.8578               561.6989               590.3333
 Red. masses --     14.2284                17.1942                14.3958
 Frc consts  --      2.5902                 3.1962                 2.9558
 IR Inten    --      6.1196                15.4276               259.0689

                     13                     14                     15
                      A                      A                      A
 Frequencies --    766.7413               975.8380              1082.8692
 Red. masses --     18.0888                14.1222                 1.7859
 Frc consts  --      6.2655                 7.9234                 1.2338
 IR Inten    --      2.3504               278.6295               403.2084

                     16                     17                     18
                      A                      A                      A
 Frequencies --   1163.2937              1203.7048              1212.8843
 Red. masses --      4.9486                10.4140                10.4110
 Frc consts  --      3.9456                 8.8901                 9.0237
 IR Inten    --    271.7826               175.8018               427.3044

                     19                     20                     21
                      A                      A                      A
 Frequencies --   1225.7970              1247.0612              3518.9998
 Red. masses --      7.1715                12.3644                 1.0742
 Frc consts  --      6.3488                11.3292                 7.8375
 IR Inten    --    834.2764               214.1322                69.2365

 - Thermochemistry -
 -------------------
 Temperature   298.150 Kelvin.  Pressure   1.00000 Atm.
 Atom     1 has atomic number  6 and mass  12.00000

 Molecular mass:   147.96801 amu.
 Principal axes and moments of inertia in atomic units:
                           1         2         3
     Eigenvalues --   681.825661150.354721151.38053
           X            0.99974   0.00299   0.02267
           Y           -0.02286   0.16072   0.98674
           Z            0.00070   0.98700  -0.16075
 This molecule is an asymmetric top.
 Rotational symmetry number  1.
 Warning -- assumption of classical behavior for rotation
           may cause significant error
 Rotational temperatures (Kelvin)      0.12703     0.07529     0.07523
 Rotational constants (GHZ):           2.64692     1.56886     1.56746
 Zero-point vibrational energy     101328.0 (Joules/Mol)
                                   24.21798 (Kcal/Mol)
 Warning -- explicit consideration of  12 degrees of freedom as
           vibrations may cause significant error
 Vibrational temperatures:     88.06   268.00   285.41   433.91   465.45
          (Kelvin)            491.25   629.87   703.52   714.40   799.76
                              808.16   849.36  1103.17  1404.01  1558.01
                             1673.72  1731.86  1745.07  1763.65  1794.24
                             5063.06

 Zero-point correction=                           0.038594 (Hartree/Particle)
 Thermal correction to Energy=                    0.046068
 Thermal correction to Enthalpy=                  0.047012
 Thermal correction to Gibbs Free Energy=         0.006043
 Sum of electronic and zero-point Energies=           -941.463655
 Sum of electronic and thermal Energies=              -941.456181
 Sum of electronic and thermal Enthalpies=            -941.455237
 Sum of electronic and thermal Free Energies=         -941.496206

                     E (Thermal)             CV                S
                      KCal/Mol        Cal/Mol-Kelvin    Cal/Mol-Kelvin
 Total                   28.908             26.141             86.226
 Electronic               0.000              0.000              0.000
 Translational            0.889              2.981             40.886
 Rotational               0.889              2.981             28.292
 Vibrational             27.131             20.179             17.048
 Vibration     1          0.597              1.973              4.418
 Vibration     2          0.632              1.859              2.265
 Vibration     3          0.637              1.842              2.148
 Vibration     4          0.694              1.671              1.408
 Vibration     5          0.708              1.628              1.292
 Vibration     6          0.721              1.593              1.205
 Vibration     7          0.798              1.388              0.834
 Vibration     8          0.845              1.274              0.686
 Vibration     9          0.852              1.258              0.667
 Vibration    10          0.911              1.127              0.532
 Vibration    11          0.917              1.114              0.520
 Vibration    12          0.948              1.052              0.467

 Optimization completed.
    -- Stationary point found.
 Normal termination of Gaussian 16 at Thu May 19 20:10:20 2022.
