 Gaussian 16, Revision C.01,
 Gaussian 16:  ES64L-G16RevC.01  3-Jul-2019

 ----------------------------------------------------------------------
 #m062X/gen 6D OPT Freq=Noraman INT(grid=ultrafine) SCRF=(SMD,Solvent=h
 2o)
 ----------------------------------------------------------------------

 -----
 a1 b1
 -----
 Symbolic Z-matrix:
 Charge = -1 Multiplicity = 1

 SCF Done:  E(RM062X) =  -643.857822030     A.U. after   13 cycles
 Optimization completed.
    -- Stationary point found.
 Normal termination of Gaussian 16 at Thu May 19 20:15:54 2022.

 ------------------------------------------------------------------
 #N Geom=AllCheck Guess=TCheck SCRF=Check GenChk RM062X/ChkBas Freq
 ------------------------------------------------------------------

 Structure from the checkpoint file:  "/jobfs/40666064.gadi-pbs/Gau-730221.chk"
 -----
 a1 b1
 -----
 Charge = -1 Multiplicity = 1

                         Standard orientation:
 ---------------------------------------------------------------------
 Center     Atomic      Atomic             Coordinates (Angstroms)
 Number     Number       Type             X           Y           Z
 ---------------------------------------------------------------------
      1         16           0        0.135257   -0.041416    0.012148
      2          8           0        0.290612   -0.228734    1.492817
      3          8           0        0.346552   -1.299249   -0.765169
      4          7           0        1.029080    1.089005   -0.602431
      5          1           0        0.970035    1.904899    0.012250
      6          6           0       -1.602910    0.347306   -0.188326
      7          1           0       -1.810739    0.455729   -1.254411
      8          1           0       -1.810513    1.283457    0.335307
      9          1           0       -2.196317   -0.464443    0.238285
 ---------------------------------------------------------------------

 SCF Done:  E(RM062X) =  -643.857822030     A.U. after    1 cycles

 The electronic state is 1-A.
 Alpha  occ. eigenvalues --  -90.12707 -19.61424 -19.61342 -14.71302 -10.55248
 Alpha  occ. eigenvalues --   -8.43661  -6.35904  -6.35803  -6.35711  -1.19853
 Alpha  occ. eigenvalues --   -1.08274  -0.95491  -0.82742  -0.66017  -0.56382
 Alpha  occ. eigenvalues --   -0.54018  -0.52824  -0.47921  -0.47284  -0.41227
 Alpha  occ. eigenvalues --   -0.38718  -0.36411  -0.34915  -0.32563  -0.29199
 Alpha virt. eigenvalues --    0.02317   0.05242   0.05515   0.05865   0.07661
 Alpha virt. eigenvalues --    0.09015   0.09112   0.12941   0.13164   0.14109
 Alpha virt. eigenvalues --    0.17767   0.18202   0.19874   0.21158   0.22456

 Mulliken charges:
               1
     1  S    1.274761
     2  O   -0.797308
     3  O   -0.809922
     4  N   -1.046206
     5  H    0.392399
     6  C   -0.824348
     7  H    0.270263
     8  H    0.270933
     9  H    0.269426
 Sum of Mulliken charges =  -1.00000

 Dipole moment (field-independent basis, Debye):
    X=             -6.2745    Y=              3.5928    Z=              0.4356  Tot=              7.2434
 Quadrupole moment (field-independent basis, Debye-Ang):
   XX=            -41.8777   YY=            -44.2436   ZZ=            -51.7232
   XY=             -0.8308   XZ=              2.9507   YZ=              1.4322

  Exact polarizability:      71.066       3.040      68.669      -2.229      -2.184      68.669
 Approx polarizability:      56.369       2.765      58.424      -2.295      -1.078      58.845

                      1                      2                      3
                      A                      A                      A
 Frequencies --    249.7494               268.2990               331.0111
 Red. masses --      1.2386                 1.3991                 3.7752
 Frc consts  --      0.0455                 0.0593                 0.2437
 IR Inten    --     30.4162                50.8731                 7.4167

                      4                      5                      6
                      A                      A                      A
 Frequencies --    394.1664               466.3754               490.8471
 Red. masses --      1.9415                 3.4569                 8.3663
 Frc consts  --      0.1777                 0.4430                 1.1876
 IR Inten    --    105.2768               124.6200                37.4454

                      7                      8                      9
                      A                      A                      A
 Frequencies --    515.1082               755.2086               959.7499
 Red. masses --      7.3218                 6.1841                 4.2315
 Frc consts  --      1.1446                 2.0781                 2.2964
 IR Inten    --    108.5317                78.8468               203.8888

                     10                     11                     12
                      A                      A                      A
 Frequencies --    985.9223               986.4379              1057.3858
 Red. masses --      1.3855                 1.6593                 4.5533
 Frc consts  --      0.7935                 0.9513                 2.9994
 IR Inten    --     68.2600                74.8905               737.6802

                     13                     14                     15
                      A                      A                      A
 Frequencies --   1099.8245              1174.6322              1374.3424
 Red. masses --      3.3139                 2.0964                 1.2248
 Frc consts  --      2.3618                 1.7043                 1.3631
 IR Inten    --    434.7266               366.7242                17.7676

                     16                     17                     18
                      A                      A                      A
 Frequencies --   1466.2839              1466.6933              3105.5224
 Red. masses --      1.0473                 1.0473                 1.0308
 Frc consts  --      1.3266                 1.3274                 5.8571
 IR Inten    --      8.9206                 9.0555                 2.7202

                     19                     20                     21
                      A                      A                      A
 Frequencies --   3206.4594              3215.3342              3497.5464
 Red. masses --      1.1071                 1.1074                 1.0737
 Frc consts  --      6.7067                 6.7454                 7.7386
 IR Inten    --      1.6801                 1.1868                27.8052

 - Thermochemistry -
 -------------------
 Temperature   298.150 Kelvin.  Pressure   1.00000 Atm.
 Atom     1 has atomic number 16 and mass  31.97207

 Molecular mass:    93.99628 amu.
 Principal axes and moments of inertia in atomic units:
                           1         2         3
     Eigenvalues --   370.30634 404.57723 407.48721
           X            0.99182   0.09562  -0.08461
           Y            0.04018   0.39521   0.91771
           Z           -0.12119   0.91360  -0.38813
 This molecule is an asymmetric top.
 Rotational symmetry number  1.
 Rotational temperatures (Kelvin)      0.23390     0.21409     0.21256
 Rotational constants (GHZ):           4.87364     4.46081     4.42895
 Zero-point vibrational energy     161896.0 (Joules/Mol)
                                   38.69408 (Kcal/Mol)
 Warning -- explicit consideration of   7 degrees of freedom as
           vibrations may cause significant error
 Vibrational temperatures:    359.33   386.02   476.25   567.12   671.01
          (Kelvin)            706.22   741.13  1086.58  1380.87  1418.52
                             1419.26  1521.34  1582.40  1690.03  1977.37
                             2109.66  2110.24  4468.15  4613.38  4626.15
                             5032.19

 Zero-point correction=                           0.061663 (Hartree/Particle)
 Thermal correction to Energy=                    0.067141
 Thermal correction to Enthalpy=                  0.068086
 Thermal correction to Gibbs Free Energy=         0.033134
 Sum of electronic and zero-point Energies=           -643.796159
 Sum of electronic and thermal Energies=              -643.790681
 Sum of electronic and thermal Enthalpies=            -643.789736
 Sum of electronic and thermal Free Energies=         -643.824688

                     E (Thermal)             CV                S
                      KCal/Mol        Cal/Mol-Kelvin    Cal/Mol-Kelvin
 Total                   42.132             19.405             73.563
 Electronic               0.000              0.000              0.000
 Translational            0.889              2.981             39.533
 Rotational               0.889              2.981             25.615
 Vibrational             40.354             13.443              8.414
 Vibration     1          0.663              1.763              1.732
 Vibration     2          0.673              1.731              1.607
 Vibration     3          0.713              1.614              1.255
 Vibration     4          0.761              1.483              0.984
 Vibration     5          0.824              1.325              0.748
 Vibration     6          0.847              1.270              0.681
 Vibration     7          0.870              1.217              0.621

 Optimization completed.
    -- Stationary point found.
 Normal termination of Gaussian 16 at Thu May 19 20:16:21 2022.
