 Gaussian 16, Revision C.01,
 Gaussian 16:  ES64L-G16RevC.01  3-Jul-2019

 -----------------------------------------------------
 #m062X/gen 6D OPT Freq=noraman SCRF=(SMD,Solvent=h2o)
 -----------------------------------------------------

 -------------------
 A.18.smd.a2b2f2.smd
 -------------------
 Symbolic Z-matrix:
 Charge = -1 Multiplicity = 1

 SCF Done:  E(RM062X) =  -1861.16958728     A.U. after   16 cycles
 SCF Done:  E(RM062X) =  -1861.17541180     A.U. after   14 cycles
 SCF Done:  E(RM062X) =  -1861.17629832     A.U. after   13 cycles
 SCF Done:  E(RM062X) =  -1861.17719471     A.U. after   14 cycles
 SCF Done:  E(RM062X) =  -1861.17746974     A.U. after   13 cycles
 SCF Done:  E(RM062X) =  -1861.17759824     A.U. after   13 cycles
 SCF Done:  E(RM062X) =  -1861.17772423     A.U. after   12 cycles
 SCF Done:  E(RM062X) =  -1861.17773581     A.U. after   11 cycles
 SCF Done:  E(RM062X) =  -1861.17774434     A.U. after   11 cycles
 SCF Done:  E(RM062X) =  -1861.17775152     A.U. after   11 cycles
 SCF Done:  E(RM062X) =  -1861.17775364     A.U. after   10 cycles
 SCF Done:  E(RM062X) =  -1861.17775421     A.U. after   10 cycles
 SCF Done:  E(RM062X) =  -1861.17775446     A.U. after    9 cycles
 SCF Done:  E(RM062X) =  -1861.17775459     A.U. after    9 cycles
 Optimization completed.
    -- Stationary point found.
 Normal termination of Gaussian 16 at Fri May 27 00:36:02 2022.

 ------------------------------------------------------------------
 #N Geom=AllCheck Guess=TCheck SCRF=Check GenChk RM062X/ChkBas Freq
 ------------------------------------------------------------------

 Structure from the checkpoint file:  "/jobfs/41413635.gadi-pbs/Gau-1205559.chk"
 -------------------
 A.18.smd.a2b2f2.smd
 -------------------
 Charge = -1 Multiplicity = 1

                         Standard orientation:
 ---------------------------------------------------------------------
 Center     Atomic      Atomic             Coordinates (Angstroms)
 Number     Number       Type             X           Y           Z
 ---------------------------------------------------------------------
      1          6           0       -3.259742   -0.127741   -0.364771
      2         16           0       -4.738498   -1.127617   -0.236003
      3          8           0       -4.501599   -2.240817   -1.186919
      4          8           0       -4.697566   -1.514943    1.199580
      5          7           0       -5.970701   -0.300816   -0.692839
      6          1           0       -6.191188    0.381363    0.037556
      7          8           0       -2.952327    0.339742   -1.612381
      8          6           0       -1.850071    1.109365   -1.497750
      9          6           0       -1.465539    1.143161   -0.192986
     10          6           0       -2.380622    0.333407    0.558075
     11         16           0       -0.072163    2.006499    0.420067
     12          6           0        1.120609    0.765365    0.810688
     13          8           0       -0.472774    2.665943    1.671853
     14          8           0        0.443076    2.830712   -0.683604
     15          6           0        1.143937    0.223410    2.094543
     16          6           0        2.056672   -0.783444    2.375906
     17          6           0        2.929234   -1.232124    1.379538
     18          6           0        2.908237   -0.686308    0.082788
     19          6           0        1.980875    0.312964   -0.189753
     20          8           0        3.827164   -2.222468    1.623159
     21          6           0        3.861394   -1.171825   -0.978483
     22          7           0        5.198281   -0.569441   -0.881182
     23          6           0        5.127675    0.859317   -1.178795
     24          6           0        6.058330   -1.213514   -1.871790
     25          1           0       -1.460175    1.554655   -2.401813
     26          1           0       -2.375198    0.133082    1.620786
     27          1           0        0.465563    0.580778    2.863047
     28          1           0        2.100478   -1.228411    3.366117
     29          1           0        1.939463    0.742091   -1.188608
     30          1           0        3.736141   -2.538458    2.538462
     31          1           0        3.421343   -0.959807   -1.969316
     32          1           0        3.975725   -2.256591   -0.895633
     33          1           0        4.527633    1.381462   -0.429415
     34          1           0        4.685793    1.047238   -2.173835
     35          1           0        6.135393    1.282816   -1.163161
     36          1           0        6.129620   -2.284815   -1.664982
     37          1           0        7.061706   -0.782189   -1.825136
     38          1           0        5.671479   -1.081087   -2.897711
 ---------------------------------------------------------------------

 SCF Done:  E(RM062X) =  -1861.17775459     A.U. after    1 cycles

 The electronic state is 1-A.
 Alpha  occ. eigenvalues --  -90.16731 -90.14889 -19.74681 -19.68767 -19.65978
 Alpha  occ. eigenvalues --  -19.65929 -19.62863 -19.62772 -14.75986 -14.72658
 Alpha  occ. eigenvalues --  -10.63996 -10.63624 -10.63346 -10.59666 -10.59270
 Alpha  occ. eigenvalues --  -10.58136 -10.58122 -10.57957 -10.57284 -10.57199
 Alpha  occ. eigenvalues --  -10.56637 -10.55450 -10.55363  -8.47982  -8.45663
 Alpha  occ. eigenvalues --   -6.40182  -6.40112  -6.40035  -6.37901  -6.37840
 Alpha  occ. eigenvalues --   -6.37755  -1.27420  -1.24770  -1.21804  -1.19814
 Alpha  occ. eigenvalues --   -1.14028  -1.10249  -1.03372  -0.98548  -0.97240
 Alpha  occ. eigenvalues --   -0.94727  -0.89194  -0.88389  -0.87196  -0.80202
 Alpha  occ. eigenvalues --   -0.79164  -0.78752  -0.73837  -0.72817  -0.71106
 Alpha  occ. eigenvalues --   -0.69127  -0.67254  -0.64582  -0.63666  -0.62950
 Alpha  occ. eigenvalues --   -0.60513  -0.58266  -0.57861  -0.56810  -0.56383
 Alpha  occ. eigenvalues --   -0.55288  -0.55092  -0.54276  -0.53767  -0.53134
 Alpha  occ. eigenvalues --   -0.52916  -0.51398  -0.50203  -0.50080  -0.50027
 Alpha  occ. eigenvalues --   -0.48320  -0.47169  -0.46572  -0.44862  -0.44226
 Alpha  occ. eigenvalues --   -0.43496  -0.42903  -0.42658  -0.42311  -0.42035
 Alpha  occ. eigenvalues --   -0.41412  -0.40327  -0.40241  -0.39949  -0.38958
 Alpha  occ. eigenvalues --   -0.37935  -0.37304  -0.36939  -0.34210  -0.32878
 Alpha  occ. eigenvalues --   -0.32361  -0.30088  -0.29235  -0.28772
 Alpha virt. eigenvalues --   -0.01641   0.00029   0.01234   0.01469   0.02183
 Alpha virt. eigenvalues --    0.02653   0.02860   0.03713   0.04028   0.04206
 Alpha virt. eigenvalues --    0.04357   0.04771   0.04948   0.05460   0.05546

 Mulliken charges:
               1
     1  C   -1.189585
     2  S    1.883362
     3  O   -0.720823
     4  O   -0.737250
     5  N   -0.932456
     6  H    0.408420
     7  O   -0.223838
     8  C   -0.084435
     9  C   -0.757501
    10  C    0.692886
    11  S    0.917447
    12  C   -0.164591
    13  O   -0.516750
    14  O   -0.548693
    15  C   -0.361316
    16  C   -0.172729
    17  C   -0.287319
    18  C   -0.018124
    19  C    0.102235
    20  O   -0.742171
    21  C   -0.039291
    22  N   -0.395765
    23  C   -0.532698
    24  C   -0.495049
    25  H    0.315564
    26  H    0.314072
    27  H    0.287054
    28  H    0.270989
    29  H    0.286164
    30  H    0.586369
    31  H    0.236696
    32  H    0.245234
    33  H    0.243238
    34  H    0.220946
    35  H    0.230626
    36  H    0.228893
    37  H    0.230701
    38  H    0.219487
 Sum of Mulliken charges =  -1.00000

 Dipole moment (field-independent basis, Debye):
    X=             25.2377    Y=              1.5800    Z=              2.7948  Tot=             25.4411
 Quadrupole moment (field-independent basis, Debye-Ang):
   XX=           -277.5137   YY=           -188.0550   ZZ=           -144.5756
   XY=            -48.0255   XZ=            -14.9925   YZ=            -16.2041

  Exact polarizability:     346.708     -21.910     294.706       1.769     -19.191     330.297
 Approx polarizability:     275.294     -20.064     252.711       0.172     -14.446     292.903

                      1                      2                      3
                      A                      A                      A
 Frequencies --     14.1433                23.5200                29.5282
 Red. masses --      5.5186                 7.4591                 8.0103
 Frc consts  --      0.0007                 0.0024                 0.0041
 IR Inten    --      2.7830                 5.4881                 5.7501

                      4                      5                      6
                      A                      A                      A
 Frequencies --     46.8264                54.7920                63.2504
 Red. masses --      5.7451                 4.0764                 3.1058
 Frc consts  --      0.0074                 0.0072                 0.0073
 IR Inten    --      1.9398                 2.5078                 3.8788

                      7                      8                      9
                      A                      A                      A
 Frequencies --     90.5521                96.9803               102.1358
 Red. masses --      7.6128                 4.0179                 7.1316
 Frc consts  --      0.0368                 0.0223                 0.0438
 IR Inten    --     12.7920                 5.9628                 8.5160

                     10                     11                     12
                      A                      A                      A
 Frequencies --    135.3240               159.3558               186.3004
 Red. masses --      7.1575                 5.8771                 9.2199
 Frc consts  --      0.0772                 0.0879                 0.1885
 IR Inten    --      1.1777                 1.6002                 5.6098

                     13                     14                     15
                      A                      A                      A
 Frequencies --    214.2479               232.6509               257.8720
 Red. masses --      6.5971                 9.9652                 3.2172
 Frc consts  --      0.1784                 0.3178                 0.1260
 IR Inten    --      5.0154                 1.6381                 5.1418

                     16                     17                     18
                      A                      A                      A
 Frequencies --    277.2788               278.9021               288.4033
 Red. masses --      1.3303                 2.5458                 2.3854
 Frc consts  --      0.0603                 0.1167                 0.1169
 IR Inten    --      0.1628                 1.6866                28.9251

                     19                     20                     21
                      A                      A                      A
 Frequencies --    302.5253               316.6680               339.7897
 Red. masses --      4.9147                 2.5498                 1.9785
 Frc consts  --      0.2650                 0.1506                 0.1346
 IR Inten    --     17.1364                28.0277                 0.3882

                     22                     23                     24
                      A                      A                      A
 Frequencies --    357.9557               368.6852               386.3877
 Red. masses --      7.0105                 4.9714                 6.1143
 Frc consts  --      0.5292                 0.3981                 0.5378
 IR Inten    --      2.6918                 8.8170                 1.5539

                     25                     26                     27
                      A                      A                      A
 Frequencies --    407.4483               432.2832               438.8486
 Red. masses --      8.0365                 1.3092                 2.4793
 Frc consts  --      0.7861                 0.1441                 0.2813
 IR Inten    --     27.8462               221.8672                80.2431

                     28                     29                     30
                      A                      A                      A
 Frequencies --    439.2387               454.5462               465.8043
 Red. masses --      2.5042                 1.9176                 3.1183
 Frc consts  --      0.2847                 0.2334                 0.3986
 IR Inten    --     47.6505                28.1654                42.6181

                     31                     32                     33
                      A                      A                      A
 Frequencies --    488.9363               493.9245               510.8333
 Red. masses --      2.7196                 3.5526                11.3684
 Frc consts  --      0.3831                 0.5106                 1.7479
 IR Inten    --    166.3972                16.6372                87.3864

                     34                     35                     36
                      A                      A                      A
 Frequencies --    519.0621               530.7154               554.1451
 Red. masses --      3.9009                 7.1331                 4.5907
 Frc consts  --      0.6192                 1.1837                 0.8306
 IR Inten    --      8.4957                52.6192                47.1008

                     37                     38                     39
                      A                      A                      A
 Frequencies --    606.8347               616.6449               622.8900
 Red. masses --     10.1383                 6.0102                 4.0429
 Frc consts  --      2.1997                 1.3465                 0.9242
 IR Inten    --     97.6783               400.1316               196.3040

                     40                     41                     42
                      A                      A                      A
 Frequencies --    648.4142               673.4551               692.9662
 Red. masses --      5.9754                 5.8893                 7.0220
 Frc consts  --      1.4802                 1.5737                 1.9867
 IR Inten    --     85.3120                16.8064               194.4475

                     43                     44                     45
                      A                      A                      A
 Frequencies --    754.7576               809.5657               845.7281
 Red. masses --      4.2224                 4.2114                 1.3770
 Frc consts  --      1.4172                 1.6262                 0.5803
 IR Inten    --      6.7478                18.2188                 9.1477

                     46                     47                     48
                      A                      A                      A
 Frequencies --    847.2614               867.2347               883.8192
 Red. masses --      1.5385                 1.4661                 3.4365
 Frc consts  --      0.6507                 0.6496                 1.5816
 IR Inten    --     45.7218                37.5602                47.6030

                     49                     50                     51
                      A                      A                      A
 Frequencies --    923.1750               933.2363               944.9825
 Red. masses --      4.8438                 6.8095                 1.5036
 Frc consts  --      2.4322                 3.4942                 0.7911
 IR Inten    --     81.8744                92.9796                16.2414

                     52                     53                     54
                      A                      A                      A
 Frequencies --    966.9207               979.0770               988.0868
 Red. masses --      5.9950                 9.5862                 1.3491
 Frc consts  --      3.3023                 5.4142                 0.7761
 IR Inten    --     46.2850               235.6724                 0.2475

                     55                     56                     57
                      A                      A                      A
 Frequencies --   1001.7192              1056.4825              1075.0010
 Red. masses --      1.7783                 2.2453                 1.5428
 Frc consts  --      1.0513                 1.4766                 1.0504
 IR Inten    --     10.8813                59.9749                40.4552

                     58                     59                     60
                      A                      A                      A
 Frequencies --   1076.5703              1092.0691              1104.8329
 Red. masses --      2.6934                 2.0937                 3.1497
 Frc consts  --      1.8392                 1.4712                 2.2652
 IR Inten    --    632.5626                64.0605               385.7239

                     61                     62                     63
                      A                      A                      A
 Frequencies --   1121.1895              1134.4455              1140.5334
 Red. masses --      2.2061                 1.2588                 3.0761
 Frc consts  --      1.6340                 0.9545                 2.3576
 IR Inten    --    546.3628                 1.3313               313.2660

                     64                     65                     66
                      A                      A                      A
 Frequencies --   1160.6144              1177.4999              1187.9362
 Red. masses --      1.9885                 2.3768                 1.3961
 Frc consts  --      1.5781                 1.9416                 1.1608
 IR Inten    --     57.4350                42.4316                 3.5835

                     67                     68                     69
                      A                      A                      A
 Frequencies --   1191.1925              1196.9602              1211.8354
 Red. masses --      1.3884                 3.8077                 6.0344
 Frc consts  --      1.1607                 3.2142                 5.2212
 IR Inten    --     33.0065               521.3048                33.6504

                     70                     71                     72
                      A                      A                      A
 Frequencies --   1221.8158              1261.5948              1265.5481
 Red. masses --      2.0508                 2.1789                 2.3434
 Frc consts  --      1.8038                 2.0432                 2.2113
 IR Inten    --     39.1112               157.3345                12.2845

                     73                     74                     75
                      A                      A                      A
 Frequencies --   1268.4364              1291.3066              1300.7950
 Red. masses --     10.0504                 3.1975                 2.5076
 Frc consts  --      9.5273                 3.1413                 2.4999
 IR Inten    --    478.2477               219.7298                43.3226

                     76                     77                     78
                      A                      A                      A
 Frequencies --   1304.2556              1344.9443              1387.0097
 Red. masses --      1.7414                 1.3094                 3.4730
 Frc consts  --      1.7453                 1.3955                 3.9366
 IR Inten    --    107.6203                21.4129                50.6597

                     79                     80                     81
                      A                      A                      A
 Frequencies --   1400.4135              1417.5475              1458.2562
 Red. masses --      4.4832                 1.4869                 1.1728
 Frc consts  --      5.1802                 1.7604                 1.4694
 IR Inten    --      5.8824                36.6244                 1.3990

                     82                     83                     84
                      A                      A                      A
 Frequencies --   1475.0849              1484.8115              1501.3298
 Red. masses --      2.7485                 1.3493                 1.0448
 Frc consts  --      3.5236                 1.7526                 1.3875
 IR Inten    --     55.2087                 8.2641                 6.4706

                     85                     86                     87
                      A                      A                      A
 Frequencies --   1504.8995              1508.9820              1513.9148
 Red. masses --      1.0886                 1.0673                 1.0483
 Frc consts  --      1.4526                 1.4319                 1.4156
 IR Inten    --      0.9459                14.7045                20.3285

                     88                     89                     90
                      A                      A                      A
 Frequencies --   1520.0324              1542.2537              1566.4456
 Red. masses --      1.0548                 2.9005                 6.6958
 Frc consts  --      1.4359                 4.0648                 9.6801
 IR Inten    --     30.0682               109.4442                81.5390

                     91                     92                     93
                      A                      A                      A
 Frequencies --   1642.3382              1660.6943              1684.2718
 Red. masses --      6.9381                 6.2796                 7.0119
 Frc consts  --     11.0260                10.2037                11.7195
 IR Inten    --     62.1801               156.6657                59.7562

                     94                     95                     96
                      A                      A                      A
 Frequencies --   3003.0010              3005.4573              3005.7191
 Red. masses --      1.0565                 1.0592                 1.0694
 Frc consts  --      5.6134                 5.6368                 5.6924
 IR Inten    --     83.9223                94.1812               207.5192

                     97                     98                     99
                      A                      A                      A
 Frequencies --   3130.5999              3135.8014              3137.8927
 Red. masses --      1.0762                 1.0783                 1.0874
 Frc consts  --      6.2143                 6.2470                 6.3086
 IR Inten    --     49.5385                52.5861                18.9359

                    100                    101                    102
                      A                      A                      A
 Frequencies --   3175.6935              3177.8962              3224.4823
 Red. masses --      1.1051                 1.1042                 1.0920
 Frc consts  --      6.5663                 6.5702                 6.6898
 IR Inten    --     38.2984                40.1922                 1.0286

                    103                    104                    105
                      A                      A                      A
 Frequencies --   3232.4886              3254.2934              3310.8132
 Red. masses --      1.0918                 1.0946                 1.1000
 Frc consts  --      6.7218                 6.8302                 7.1041
 IR Inten    --      2.5557                 3.2770                22.0950

                    106                    107                    108
                      A                      A                      A
 Frequencies --   3332.8149              3505.3166              3769.0642
 Red. masses --      1.1020                 1.0736                 1.0665
 Frc consts  --      7.2120                 7.7722                 8.9261
 IR Inten    --     28.2970                52.8104               265.9659

 - Thermochemistry -
 -------------------
 Temperature   298.150 Kelvin.  Pressure   1.00000 Atm.
 Atom     1 has atomic number  6 and mass  12.00000

 Molecular mass:   359.03716 amu.
 Principal axes and moments of inertia in atomic units:
                           1         2         3
     Eigenvalues --  4573.62241********************
           X            0.99986  -0.00948  -0.01354
           Y            0.00920   0.99975  -0.02017
           Z            0.01373   0.02004   0.99970
 This molecule is an asymmetric top.
 Rotational symmetry number  1.
 Warning -- assumption of classical behavior for rotation
           may cause significant error
 Rotational temperatures (Kelvin)      0.01894     0.00485     0.00463
 Rotational constants (GHZ):           0.39460     0.10108     0.09650
 Zero-point vibrational energy     746602.0 (Joules/Mol)
                                  178.44216 (Kcal/Mol)
 Warning -- explicit consideration of  38 degrees of freedom as
           vibrations may cause significant error
 Vibrational temperatures:     20.35    33.84    42.48    67.37    78.83
          (Kelvin)             91.00   130.28   139.53   146.95   194.70
                              229.28   268.04   308.25   334.73   371.02
                              398.94   401.28   414.95   435.27   455.61
                              488.88   515.02   530.46   555.93   586.23
                              621.96   631.41   631.97   653.99   670.19
                              703.47   710.65   734.98   746.81   763.58
                              797.29   873.10   887.21   896.20   932.92
                              968.95   997.02  1085.93  1164.78  1216.81
                             1219.02  1247.76  1271.62  1328.24  1342.72
                             1359.62  1391.18  1408.67  1421.64  1441.25
                             1520.04  1546.69  1548.94  1571.24  1589.61
                             1613.14  1632.21  1640.97  1669.87  1694.16
                             1709.18  1713.86  1722.16  1743.56  1757.92
                             1815.15  1820.84  1825.00  1857.90  1871.55
                             1876.53  1935.07  1995.60  2014.88  2039.53
                             2098.11  2122.32  2136.31  2160.08  2165.21
                             2171.09  2178.19  2186.99  2218.96  2253.77
                             2362.96  2389.37  2423.29  4320.65  4324.18
                             4324.56  4504.24  4511.72  4514.73  4569.11
                             4572.28  4639.31  4650.83  4682.20  4763.52
                             4795.18  5043.37  5422.84

 Zero-point correction=                           0.284366 (Hartree/Particle)
 Thermal correction to Energy=                    0.306465
 Thermal correction to Enthalpy=                  0.307409
 Thermal correction to Gibbs Free Energy=         0.230319
 Sum of electronic and zero-point Energies=          -1860.893389
 Sum of electronic and thermal Energies=             -1860.871290
 Sum of electronic and thermal Enthalpies=           -1860.870346
 Sum of electronic and thermal Free Energies=        -1860.947435

                     E (Thermal)             CV                S
                      KCal/Mol        Cal/Mol-Kelvin    Cal/Mol-Kelvin
 Total                  192.310             83.088            162.249
 Electronic               0.000              0.000              0.000
 Translational            0.889              2.981             43.528
 Rotational               0.889              2.981             35.678
 Vibrational            190.532             77.127             83.043
 Vibration     1          0.593              1.986              7.322
 Vibration     2          0.593              1.985              6.312
 Vibration     3          0.593              1.984              5.861
 Vibration     4          0.595              1.979              4.947
 Vibration     5          0.596              1.976              4.636
 Vibration     6          0.597              1.972              4.353
 Vibration     7          0.602              1.956              3.648
 Vibration     8          0.603              1.951              3.514
 Vibration     9          0.604              1.947              3.413
 Vibration    10          0.613              1.918              2.869
 Vibration    11          0.621              1.892              2.557
 Vibration    12          0.632              1.859              2.264
 Vibration    13          0.644              1.819              2.007
 Vibration    14          0.653              1.791              1.858
 Vibration    15          0.667              1.749              1.676
 Vibration    16          0.678              1.715              1.550
 Vibration    17          0.679              1.713              1.540
 Vibration    18          0.685              1.695              1.483
 Vibration    19          0.694              1.669              1.403
 Vibration    20          0.704              1.642              1.327
 Vibration    21          0.720              1.596              1.213
 Vibration    22          0.733              1.559              1.131
 Vibration    23          0.741              1.537              1.085
 Vibration    24          0.755              1.499              1.014
 Vibration    25          0.772              1.454              0.936
 Vibration    26          0.793              1.400              0.851
 Vibration    27          0.799              1.385              0.830
 Vibration    28          0.799              1.385              0.829
 Vibration    29          0.813              1.351              0.782
 Vibration    30          0.823              1.326              0.749
 Vibration    31          0.845              1.275              0.686
 Vibration    32          0.850              1.263              0.673
 Vibration    33          0.866              1.226              0.632
 Vibration    34          0.874              1.208              0.612
 Vibration    35          0.886              1.182              0.586
 Vibration    36          0.910              1.131              0.536
 Vibration    37          0.966              1.017              0.438
 Vibration    38          0.976              0.997              0.422

                           ! Non-Optimized Parameters !
 Normal termination of Gaussian 16 at Fri May 27 01:01:28 2022.
