 Gaussian 16, Revision C.01,
 Gaussian 16:  ES64L-G16RevC.01  3-Jul-2019

 -----------------------------------------------------
 #m062X/gen 6D OPT Freq=noraman SCRF=(SMD,Solvent=h2o)
 -----------------------------------------------------

 -----------------
 A.19.smd.a1b2.smd
 -----------------
 Symbolic Z-matrix:
 Charge = -1 Multiplicity = 1

 SCF Done:  E(RM062X) =  -1633.42626541     A.U. after   15 cycles
 SCF Done:  E(RM062X) =  -1633.43039644     A.U. after   12 cycles
 SCF Done:  E(RM062X) =  -1633.43118337     A.U. after   12 cycles
 SCF Done:  E(RM062X) =  -1633.43205262     A.U. after   13 cycles
 SCF Done:  E(RM062X) =  -1633.43233964     A.U. after   12 cycles
 SCF Done:  E(RM062X) =  -1633.43255397     A.U. after   12 cycles
 SCF Done:  E(RM062X) =  -1633.43255665     A.U. after   11 cycles
 SCF Done:  E(RM062X) =  -1633.43257254     A.U. after   10 cycles
 SCF Done:  E(RM062X) =  -1633.43258906     A.U. after   11 cycles
 SCF Done:  E(RM062X) =  -1633.43259178     A.U. after    9 cycles
 SCF Done:  E(RM062X) =  -1633.43259021     A.U. after    9 cycles
 SCF Done:  E(RM062X) =  -1633.43258895     A.U. after    9 cycles
 SCF Done:  E(RM062X) =  -1633.43258941     A.U. after   10 cycles
 SCF Done:  E(RM062X) =  -1633.43258939     A.U. after    8 cycles
 SCF Done:  E(RM062X) =  -1633.43258941     A.U. after    8 cycles
 Optimization completed.
    -- Stationary point found.
 Normal termination of Gaussian 16 at Fri May 27 00:28:05 2022.

 ------------------------------------------------------------------
 #N Geom=AllCheck Guess=TCheck SCRF=Check GenChk RM062X/ChkBas Freq
 ------------------------------------------------------------------

 Structure from the checkpoint file:  "/jobfs/41414901.gadi-pbs/Gau-2460960.chk"
 -----------------
 A.19.smd.a1b2.smd
 -----------------
 Charge = -1 Multiplicity = 1

                         Standard orientation:
 ---------------------------------------------------------------------
 Center     Atomic      Atomic             Coordinates (Angstroms)
 Number     Number       Type             X           Y           Z
 ---------------------------------------------------------------------
      1          6           0        3.002343    0.033129    0.221260
      2         16           0        4.719409    0.414756   -0.071030
      3          8           0        4.690424    1.668681   -0.866911
      4          8           0        5.223020    0.576393    1.321304
      5          7           0        5.380810   -0.712945   -0.913726
      6          1           0        5.487184   -1.537637   -0.317066
      7          6           0        2.298746   -0.210790    1.358012
      8          6           0        0.960880   -0.522778    0.924554
      9          6           0        1.002217   -0.438514   -0.443596
     10          8           0        2.223373   -0.103604   -0.913689
     11          6           0       -0.360995   -0.859593    1.377300
     12          6           0       -1.234862   -1.009902    0.341970
     13         16           0       -0.492417   -0.740204   -1.240867
     14          1           0        2.690794   -0.167077    2.364448
     15          1           0       -0.659199   -0.985529    2.412552
     16          6           0       -2.683789   -1.380479    0.421346
     17          7           0       -3.575664   -0.369207   -0.150996
     18          6           0       -3.473332    0.888708    0.594331
     19          6           0       -4.462212    1.905690    0.056212
     20          8           0       -5.798068    1.416374    0.131264
     21          6           0       -5.920055    0.195653   -0.592557
     22          6           0       -4.957762   -0.849423   -0.060799
     23          1           0       -2.915026   -1.553498    1.487622
     24          1           0       -2.866238   -2.322198   -0.109093
     25          1           0       -2.460122    1.291466    0.498323
     26          1           0       -3.671766    0.716668    1.668785
     27          1           0       -4.225329    2.150332   -0.989534
     28          1           0       -4.428226    2.820777    0.651374
     29          1           0       -5.726760    0.386159   -1.658283
     30          1           0       -6.952331   -0.140485   -0.473025
     31          1           0       -5.058779   -1.769748   -0.645056
     32          1           0       -5.219176   -1.079938    0.988430
 ---------------------------------------------------------------------

 SCF Done:  E(RM062X) =  -1633.43258941     A.U. after    1 cycles

 The electronic state is 1-A.
 Alpha  occ. eigenvalues --  -90.14524 -89.96634 -19.73586 -19.65498 -19.62582
 Alpha  occ. eigenvalues --  -19.62455 -14.76348 -14.72360 -10.63693 -10.62484
 Alpha  occ. eigenvalues --  -10.59158 -10.58799 -10.58789 -10.58095 -10.57025
 Alpha  occ. eigenvalues --  -10.56517 -10.56447 -10.56404 -10.56383  -8.45304
 Alpha  occ. eigenvalues --   -8.30996  -6.37545  -6.37476  -6.37396  -6.23018
 Alpha  occ. eigenvalues --   -6.22806  -6.22504  -1.26038  -1.21369  -1.16603
 Alpha  occ. eigenvalues --   -1.09866  -1.04097  -0.98992  -0.96828  -0.91291
 Alpha  occ. eigenvalues --   -0.86897  -0.86362  -0.82317  -0.81120  -0.74835
 Alpha  occ. eigenvalues --   -0.73942  -0.70526  -0.68312  -0.65196  -0.64158
 Alpha  occ. eigenvalues --   -0.62630  -0.58980  -0.58081  -0.56867  -0.56312
 Alpha  occ. eigenvalues --   -0.55265  -0.54801  -0.53901  -0.53373  -0.52766
 Alpha  occ. eigenvalues --   -0.51531  -0.50928  -0.48827  -0.48632  -0.46260
 Alpha  occ. eigenvalues --   -0.46143  -0.44051  -0.43318  -0.42754  -0.42454
 Alpha  occ. eigenvalues --   -0.41498  -0.40929  -0.40011  -0.39891  -0.38518
 Alpha  occ. eigenvalues --   -0.37789  -0.36750  -0.36091  -0.33847  -0.33235
 Alpha  occ. eigenvalues --   -0.31207  -0.29616  -0.29057  -0.26896
 Alpha virt. eigenvalues --    0.01132   0.01247   0.02252   0.02808   0.03234
 Alpha virt. eigenvalues --    0.03352   0.03673   0.04232   0.04583   0.04675
 Alpha virt. eigenvalues --    0.05360   0.05887   0.06013   0.06259   0.06708

 Mulliken charges:
               1
     1  C   -1.042323
     2  S    1.927160
     3  O   -0.727806
     4  O   -0.719670
     5  N   -0.931194
     6  H    0.404849
     7  C   -0.230161
     8  C    0.689912
     9  C   -0.836475
    10  O   -0.254851
    11  C   -0.081902
    12  C   -0.138004
    13  S    0.486042
    14  H    0.293824
    15  H    0.274442
    16  C   -0.397945
    17  N   -0.476940
    18  C   -0.111850
    19  C   -0.487279
    20  O   -0.446397
    21  C   -0.420243
    22  C   -0.171871
    23  H    0.249652
    24  H    0.259982
    25  H    0.255187
    26  H    0.233881
    27  H    0.226919
    28  H    0.235442
    29  H    0.226422
    30  H    0.235008
    31  H    0.240564
    32  H    0.235626
 Sum of Mulliken charges =  -1.00000

 Dipole moment (field-independent basis, Debye):
    X=            -26.3920    Y=             -6.8200    Z=              4.6854  Tot=             27.6587
 Quadrupole moment (field-independent basis, Debye-Ang):
   XX=           -273.5731   YY=           -134.2852   ZZ=           -135.8848
   XY=            -10.7664   XZ=             15.0642   YZ=             -1.8956

  Exact polarizability:     334.274      22.356     218.408      -0.960      -0.284     273.167
 Approx polarizability:     260.934      16.150     189.827       0.938      -0.203     249.656

                      1                      2                      3
                      A                      A                      A
 Frequencies --     24.7620                32.2232                47.1398
 Red. masses --      8.7889                 6.7329                 7.0281
 Frc consts  --      0.0032                 0.0041                 0.0092
 IR Inten    --      1.7359                 4.5361                 2.0386

                      4                      5                      6
                      A                      A                      A
 Frequencies --     53.3993                72.3392               113.2914
 Red. masses --      3.5440                 6.9418                 7.7609
 Frc consts  --      0.0060                 0.0214                 0.0587
 IR Inten    --      0.5150                 1.2907                 3.0395

                      7                      8                      9
                      A                      A                      A
 Frequencies --    151.3681               162.5999               210.5102
 Red. masses --      6.9342                 5.1299                 7.6797
 Frc consts  --      0.0936                 0.0799                 0.2005
 IR Inten    --      5.8803                11.9136                 1.1450

                     10                     11                     12
                      A                      A                      A
 Frequencies --    220.3482               273.3310               281.3989
 Red. masses --      6.3484                 3.3218                 2.3733
 Frc consts  --      0.1816                 0.1462                 0.1107
 IR Inten    --      8.5098                 6.2709                 0.3694

                     13                     14                     15
                      A                      A                      A
 Frequencies --    294.6100               310.9784               329.2040
 Red. masses --      3.0966                 4.7215                 4.6883
 Frc consts  --      0.1584                 0.2690                 0.2994
 IR Inten    --     39.3020                22.7171                 9.0498

                     16                     17                     18
                      A                      A                      A
 Frequencies --    343.7792               370.5686               434.1036
 Red. masses --      5.8408                 2.1815                 2.9285
 Frc consts  --      0.4067                 0.1765                 0.3251
 IR Inten    --     14.3616                23.3663                99.6977

                     19                     20                     21
                      A                      A                      A
 Frequencies --    448.6977               464.0124               475.1102
 Red. masses --      2.1328                 4.4434                 4.7868
 Frc consts  --      0.2530                 0.5637                 0.6366
 IR Inten    --      1.2750                54.2607                25.3262

                     22                     23                     24
                      A                      A                      A
 Frequencies --    495.9438               499.9274               521.8185
 Red. masses --      2.6500                 2.8880                 7.0806
 Frc consts  --      0.3840                 0.4253                 1.1360
 IR Inten    --    166.1955                 0.4085                25.5125

                     25                     26                     27
                      A                      A                      A
 Frequencies --    533.3108               570.0842               601.5591
 Red. masses --      5.2021                10.7589                 6.0817
 Frc consts  --      0.8717                 2.0601                 1.2967
 IR Inten    --      7.7815               186.4965               100.2986

                     28                     29                     30
                      A                      A                      A
 Frequencies --    640.0508               650.5405               670.2423
 Red. masses --      2.9360                 5.1541                 3.6839
 Frc consts  --      0.7087                 1.2852                 0.9750
 IR Inten    --     16.6269                50.4816                13.9712

                     31                     32                     33
                      A                      A                      A
 Frequencies --    673.8245               689.7615               808.6502
 Red. masses --      4.7178                 5.9022                 5.5634
 Frc consts  --      1.2621                 1.6545                 2.1434
 IR Inten    --     80.2328                 5.3980                56.5990

                     34                     35                     36
                      A                      A                      A
 Frequencies --    829.4970               856.2913               872.2477
 Red. masses --      2.6945                 1.3730                 1.5176
 Frc consts  --      1.0923                 0.5932                 0.6803
 IR Inten    --     21.4759                 7.0431                53.6101

                     37                     38                     39
                      A                      A                      A
 Frequencies --    879.3509               903.4799               938.6154
 Red. masses --      1.5891                 2.8856                10.7671
 Frc consts  --      0.7240                 1.3878                 5.5889
 IR Inten    --      4.7945                90.7653                88.5639

                     40                     41                     42
                      A                      A                      A
 Frequencies --    945.1602               976.8118              1015.7935
 Red. masses --      2.1106                12.5608                 1.7212
 Frc consts  --      1.1109                 7.0614                 1.0464
 IR Inten    --     42.2415               343.5343                 4.4697

                     43                     44                     45
                      A                      A                      A
 Frequencies --   1039.9787              1065.9215              1073.5853
 Red. masses --      2.6483                 1.9643                 3.0868
 Frc consts  --      1.6876                 1.3149                 2.0962
 IR Inten    --     46.8305                13.8118               633.1987

                     46                     47                     48
                      A                      A                      A
 Frequencies --   1094.6584              1104.0238              1118.6277
 Red. masses --      2.2993                 1.7907                 2.9579
 Frc consts  --      1.6233                 1.2860                 2.1808
 IR Inten    --     30.4501                22.9375                52.9866

                     49                     50                     51
                      A                      A                      A
 Frequencies --   1132.7862              1145.2566              1160.8815
 Red. masses --      2.9464                 2.4521                 2.1222
 Frc consts  --      2.2276                 1.8949                 1.6851
 IR Inten    --    339.6990                 6.7399                19.0038

                     52                     53                     54
                      A                      A                      A
 Frequencies --   1175.4177              1183.9560              1187.2035
 Red. masses --      3.3331                 3.2708                 3.3533
 Frc consts  --      2.7132                 2.7013                 2.7847
 IR Inten    --    207.4258                73.1388               563.7918

                     55                     56                     57
                      A                      A                      A
 Frequencies --   1208.8200              1227.5568              1246.0473
 Red. masses --      2.4264                 3.2702                 1.1191
 Frc consts  --      2.0890                 2.9034                 1.0237
 IR Inten    --     28.0174                 6.1170                 7.3145

                     58                     59                     60
                      A                      A                      A
 Frequencies --   1250.7783              1289.8655              1311.0584
 Red. masses --      2.2900                 1.2549                 1.3448
 Frc consts  --      2.1108                 1.2301                 1.3620
 IR Inten    --     21.7143                16.5425                50.9892

                     61                     62                     63
                      A                      A                      A
 Frequencies --   1315.5498              1338.1353              1350.9784
 Red. masses --      6.6988                 1.3617                 1.1981
 Frc consts  --      6.8307                 1.4366                 1.2884
 IR Inten    --    106.9032                56.6011                 0.6658

                     64                     65                     66
                      A                      A                      A
 Frequencies --   1378.3411              1400.0482              1419.2237
 Red. masses --      1.2960                 1.4323                 1.4291
 Frc consts  --      1.4507                 1.6542                 1.6959
 IR Inten    --     14.9029               103.0353                11.2816

                     67                     68                     69
                      A                      A                      A
 Frequencies --   1433.0310              1453.1856              1493.0089
 Red. masses --      1.4163                 1.6813                 1.3040
 Frc consts  --      1.7137                 2.0918                 1.7125
 IR Inten    --      3.2007                10.8819                 6.3431

                     70                     71                     72
                      A                      A                      A
 Frequencies --   1494.6232              1503.0258              1504.5556
 Red. masses --      1.1074                 3.1545                 1.0990
 Frc consts  --      1.4575                 4.1987                 1.4657
 IR Inten    --      1.4591                17.7883                13.8172

                     73                     74                     75
                      A                      A                      A
 Frequencies --   1505.7599              1514.0612              1531.8380
 Red. masses --      1.1020                 1.1080                10.5462
 Frc consts  --      1.4721                 1.4965                14.5805
 IR Inten    --     18.5198                 0.0522                52.5692

                     76                     77                     78
                      A                      A                      A
 Frequencies --   1608.4742              1647.4437              2992.1581
 Red. masses --      8.1520                 7.4355                 1.0716
 Frc consts  --     12.4264                11.8900                 5.6525
 IR Inten    --     96.1622                 6.4705                88.0525

                     79                     80                     81
                      A                      A                      A
 Frequencies --   2996.5106              3006.5963              3061.2472
 Red. masses --      1.0711                 1.0703                 1.0686
 Frc consts  --      5.6666                 5.7003                 5.9004
 IR Inten    --    178.1750                82.9883                91.8208

                     82                     83                     84
                      A                      A                      A
 Frequencies --   3061.6671              3111.3865              3133.8997
 Red. masses --      1.0686                 1.0913                 1.0910
 Frc consts  --      5.9016                 6.2245                 6.3132
 IR Inten    --     84.5798                24.2955                48.8830

                     85                     86                     87
                      A                      A                      A
 Frequencies --   3136.0845              3164.1134              3165.3031
 Red. masses --      1.0904                 1.0969                 1.0974
 Frc consts  --      6.3184                 6.4705                 6.4779
 IR Inten    --     38.2417                45.0582                36.9623

                     88                     89                     90
                      A                      A                      A
 Frequencies --   3260.7443              3312.4861              3501.8397
 Red. masses --      1.0952                 1.0988                 1.0738
 Frc consts  --      6.8606                 7.1034                 7.7585
 IR Inten    --      4.1830                 5.7384                45.2681

 - Thermochemistry -
 -------------------
 Temperature   298.150 Kelvin.  Pressure   1.00000 Atm.
 Atom     1 has atomic number  6 and mass  12.00000

 Molecular mass:   301.03168 amu.
 Principal axes and moments of inertia in atomic units:
                           1         2         3
     Eigenvalues --  1659.74763********************
           X            1.00000  -0.00255   0.00093
           Y            0.00260   0.99779  -0.06645
           Z           -0.00076   0.06645   0.99779
 This molecule is an asymmetric top.
 Rotational symmetry number  1.
 Warning -- assumption of classical behavior for rotation
           may cause significant error
 Rotational temperatures (Kelvin)      0.05218     0.00532     0.00526
 Rotational constants (GHZ):           1.08736     0.11082     0.10963
 Zero-point vibrational energy     642983.7 (Joules/Mol)
                                  153.67679 (Kcal/Mol)
 Warning -- explicit consideration of  27 degrees of freedom as
           vibrations may cause significant error
 Vibrational temperatures:     35.63    46.36    67.82    76.83   104.08
          (Kelvin)            163.00   217.78   233.94   302.88   317.03
                              393.26   404.87   423.88   447.43   473.65
                              494.62   533.17   624.58   645.58   667.61
                              683.58   713.55   719.28   750.78   767.32
                              820.22   865.51   920.89   935.98   964.33
                              969.48   992.41  1163.47  1193.46  1232.01
                             1254.97  1265.19  1299.91  1350.46  1359.87
                             1405.41  1461.50  1496.30  1533.62  1544.65
                             1574.97  1588.44  1609.46  1629.83  1647.77
                             1670.25  1691.16  1703.45  1708.12  1739.22
                             1766.18  1792.78  1799.59  1855.83  1886.32
                             1892.78  1925.28  1943.76  1983.13  2014.36
                             2041.95  2061.81  2090.81  2148.11  2150.43
                             2162.52  2164.72  2166.45  2178.40  2203.97
                             2314.24  2370.30  4305.05  4311.31  4325.82
                             4404.45  4405.06  4476.59  4508.98  4512.13
                             4552.45  4554.17  4691.48  4765.93  5038.37

 Zero-point correction=                           0.244900 (Hartree/Particle)
 Thermal correction to Energy=                    0.261706
 Thermal correction to Enthalpy=                  0.262650
 Thermal correction to Gibbs Free Energy=         0.198131
 Sum of electronic and zero-point Energies=          -1633.187690
 Sum of electronic and thermal Energies=             -1633.170884
 Sum of electronic and thermal Enthalpies=           -1633.169940
 Sum of electronic and thermal Free Energies=        -1633.234459

                     E (Thermal)             CV                S
                      KCal/Mol        Cal/Mol-Kelvin    Cal/Mol-Kelvin
 Total                  164.223             64.331            135.791
 Electronic               0.000              0.000              0.000
 Translational            0.889              2.981             43.003
 Rotational               0.889              2.981             34.453
 Vibrational            162.445             58.369             58.336
 Vibration     1          0.593              1.985              6.210
 Vibration     2          0.594              1.983              5.688
 Vibration     3          0.595              1.979              4.934
 Vibration     4          0.596              1.976              4.687
 Vibration     5          0.598              1.967              4.089
 Vibration     6          0.607              1.938              3.212
 Vibration     7          0.619              1.901              2.655
 Vibration     8          0.623              1.888              2.519
 Vibration     9          0.643              1.825              2.039
 Vibration    10          0.647              1.810              1.956
 Vibration    11          0.676              1.723              1.575
 Vibration    12          0.681              1.708              1.525
 Vibration    13          0.689              1.684              1.447
 Vibration    14          0.700              1.653              1.357
 Vibration    15          0.712              1.617              1.264
 Vibration    16          0.723              1.588              1.195
 Vibration    17          0.743              1.533              1.077
 Vibration    18          0.795              1.396              0.845
 Vibration    19          0.808              1.364              0.800
 Vibration    20          0.822              1.330              0.755
 Vibration    21          0.832              1.305              0.723
 Vibration    22          0.852              1.259              0.668
 Vibration    23          0.855              1.250              0.658
 Vibration    24          0.877              1.202              0.606
 Vibration    25          0.888              1.176              0.580
 Vibration    26          0.926              1.096              0.504
 Vibration    27          0.960              1.028              0.447

                           ! Non-Optimized Parameters !
 Normal termination of Gaussian 16 at Fri May 27 00:41:09 2022.
