 Gaussian 16, Revision C.01,
 Gaussian 16:  ES64L-G16RevC.01  3-Jul-2019

 ----------------------------------------------------------------------
 #m062X/gen 6D OPT Freq=Noraman INT(grid=ultrafine) SCRF=(SMD,Solvent=h
 2o)
 ----------------------------------------------------------------------

 -----
 a1 b1
 -----
 Symbolic Z-matrix:
 Charge = -1 Multiplicity = 1

 SCF Done:  E(RM062X) =  -1295.09154605     A.U. after   16 cycles
 Optimization completed.
    -- Stationary point found.
 Normal termination of Gaussian 16 at Thu May 19 13:25:02 2022.

 ------------------------------------------------------------------
 #N Geom=AllCheck Guess=TCheck SCRF=Check GenChk RM062X/ChkBas Freq
 ------------------------------------------------------------------

 Structure from the checkpoint file:  "/jobfs/40639096.gadi-pbs/Gau-1438631.chk"
 -----
 a1 b1
 -----
 Charge = -1 Multiplicity = 1

                         Standard orientation:
 ---------------------------------------------------------------------
 Center     Atomic      Atomic             Coordinates (Angstroms)
 Number     Number       Type             X           Y           Z
 ---------------------------------------------------------------------
      1          6           0        0.515480    0.018354   -0.059953
      2          6           0       -0.179231    1.224135   -0.021023
      3          1           0        0.358984    2.166571   -0.019726
      4          6           0       -1.573126    1.220462    0.007632
      5          1           0       -2.126738    2.153515    0.031706
      6          6           0       -2.242414    0.001295    0.001653
      7         17           0       -3.991055   -0.010064    0.036028
      8          6           0       -1.558828   -1.211739   -0.033498
      9          1           0       -2.102124   -2.151077   -0.040408
     10          6           0       -0.167292   -1.197772   -0.062841
     11          1           0        0.378058   -2.136951   -0.093750
     12         16           0        2.316877    0.009907   -0.006023
     13          8           0        2.689326   -1.055769   -0.986458
     14          8           0        2.719820    1.379270   -0.423129
     15          7           0        2.802019   -0.244393    1.457993
     16          1           0        2.614899   -1.225155    1.684989
 ---------------------------------------------------------------------

 SCF Done:  E(RM062X) =  -1295.09154605     A.U. after    1 cycles

 The electronic state is 1-A.
 Alpha  occ. eigenvalues -- -102.67772 -90.13530 -19.62093 -19.61982 -14.71866
 Alpha  occ. eigenvalues --  -10.62498 -10.58168 -10.57246 -10.57163 -10.57147
 Alpha  occ. eigenvalues --  -10.57087  -9.82448  -8.44417  -7.54842  -7.54198
 Alpha  occ. eigenvalues --   -7.54178  -6.36662  -6.36567  -6.36487  -1.20809
 Alpha  occ. eigenvalues --   -1.09226  -1.00527  -0.96319  -0.94494  -0.86267
 Alpha  occ. eigenvalues --   -0.84415  -0.72150  -0.71157  -0.66029  -0.60953
 Alpha  occ. eigenvalues --   -0.56241  -0.55214  -0.54366  -0.52476  -0.51719
 Alpha  occ. eigenvalues --   -0.50393  -0.47766  -0.45090  -0.42827  -0.42195
 Alpha  occ. eigenvalues --   -0.41208  -0.39305  -0.38485  -0.37351  -0.35942
 Alpha  occ. eigenvalues --   -0.33199  -0.32394  -0.31923  -0.28493
 Alpha virt. eigenvalues --   -0.00178   0.00560   0.01547   0.02725   0.04253
 Alpha virt. eigenvalues --    0.04528   0.04853   0.06096   0.06197   0.06792
 Alpha virt. eigenvalues --    0.07662   0.08778   0.09602   0.09658   0.09920

 Mulliken charges:
               1
     1  C   -1.293277
     2  C   -0.447090
     3  H    0.273786
     4  C   -0.339466
     5  H    0.272992
     6  C    0.209209
     7  Cl   0.180601
     8  C   -0.369601
     9  H    0.273767
    10  C    0.614538
    11  H    0.271824
    12  S    1.417889
    13  O   -0.724133
    14  O   -0.791461
    15  N   -0.954484
    16  H    0.404907
 Sum of Mulliken charges =  -1.00000

 Dipole moment (field-independent basis, Debye):
    X=            -14.5332    Y=             -2.0840    Z=              0.7785  Tot=             14.7025
 Quadrupole moment (field-independent basis, Debye-Ang):
   XX=           -135.2758   YY=            -78.1096   ZZ=            -92.3608
   XY=             -5.4992   XZ=              1.1495   YZ=             -3.9798

  Exact polarizability:     216.752      -1.733     167.816       4.156       1.008     115.418
 Approx polarizability:     176.054      -0.702     152.291       2.290       1.117     104.007

                      1                      2                      3
                      A                      A                      A
 Frequencies --     26.2850                77.5518               157.0790
 Red. masses --      5.0955                10.1339                 9.7107
 Frc consts  --      0.0021                 0.0359                 0.1412
 IR Inten    --      0.3851                 7.2637                11.9179

                      4                      5                      6
                      A                      A                      A
 Frequencies --    200.0321               255.2758               282.4589
 Red. masses --      6.1230                14.2734                 4.2617
 Frc consts  --      0.1443                 0.5480                 0.2003
 IR Inten    --      1.5160                 1.5203                36.3788

                      7                      8                      9
                      A                      A                      A
 Frequencies --    326.1593               370.6512               413.3663
 Red. masses --      3.2214                 5.3898                 2.9450
 Frc consts  --      0.2019                 0.4363                 0.2965
 IR Inten    --     43.9626                 9.1788                 0.2917

                     10                     11                     12
                      A                      A                      A
 Frequencies --    445.8840               482.4870               486.8613
 Red. masses --      2.5237                 8.1585                 4.5917
 Frc consts  --      0.2956                 1.1190                 0.6413
 IR Inten    --    116.4992                59.3744                53.1201

                     13                     14                     15
                      A                      A                      A
 Frequencies --    492.9526               546.7644               614.3273
 Red. masses --      3.6656                 4.0179                12.6674
 Frc consts  --      0.5248                 0.7077                 2.8167
 IR Inten    --    118.4887               130.0694               166.8291

                     16                     17                     18
                      A                      A                      A
 Frequencies --    635.0400               739.4497               764.0814
 Red. masses --      7.1173                 3.7849                 7.2912
 Frc consts  --      1.6911                 1.2193                 2.5080
 IR Inten    --      0.1596                17.4798                95.2884

                     19                     20                     21
                      A                      A                      A
 Frequencies --    852.0819               853.8627               956.8319
 Red. masses --      1.4303                 1.3138                13.3029
 Frc consts  --      0.6118                 0.5644                 7.1757
 IR Inten    --     52.3027                24.0038               430.3027

                     22                     23                     24
                      A                      A                      A
 Frequencies --    990.1776              1005.7079              1026.7584
 Red. masses --      1.3621                 1.3657                 4.2429
 Frc consts  --      0.7868                 0.8139                 2.6354
 IR Inten    --      0.7801                 0.0046                27.5364

                     25                     26                     27
                      A                      A                      A
 Frequencies --   1067.5056              1115.3605              1120.9357
 Red. masses --      4.8081                 2.4291                 3.4213
 Frc consts  --      3.2283                 1.7804                 2.5328
 IR Inten    --    681.0918               289.6382                84.0078

                     28                     29                     30
                      A                      A                      A
 Frequencies --   1129.8411              1139.8979              1186.5858
 Red. masses --      1.3023                 2.8139                 2.5628
 Frc consts  --      0.9795                 2.1542                 2.1260
 IR Inten    --     28.6907                73.4850               394.2630

                     31                     32                     33
                      A                      A                      A
 Frequencies --   1196.3667              1317.5582              1327.1767
 Red. masses --      1.2050                 1.2815                 8.8951
 Frc consts  --      1.0162                 1.3107                 9.2312
 IR Inten    --     24.1775                 0.8087                 0.6896

                     34                     35                     36
                      A                      A                      A
 Frequencies --   1436.4947              1525.6707              1657.8694
 Red. masses --      3.1911                 2.3473                 7.7262
 Frc consts  --      3.8797                 3.2191                12.5116
 IR Inten    --     26.9377                62.9717                 7.1034

                     37                     38                     39
                      A                      A                      A
 Frequencies --   1661.2925              3235.0821              3246.2649
 Red. masses --      6.4395                 1.0904                 1.0898
 Frc consts  --     10.4712                 6.7239                 6.7664
 IR Inten    --     35.2866                 0.2917                 0.0639

                     40                     41                     42
                      A                      A                      A
 Frequencies --   3253.5936              3256.6069              3502.3785
 Red. masses --      1.0954                 1.0960                 1.0734
 Frc consts  --      6.8317                 6.8486                 7.7575
 IR Inten    --      0.2394                 1.9761                37.8971

 - Thermochemistry -
 -------------------
 Temperature   298.150 Kelvin.  Pressure   1.00000 Atm.
 Atom     1 has atomic number  6 and mass  12.00000

 Molecular mass:   189.97295 amu.
 Principal axes and moments of inertia in atomic units:
                           1         2         3
     Eigenvalues --   682.637444510.236224827.47342
           X            0.99999  -0.00301   0.00391
           Y            0.00309   0.99980  -0.01977
           Z           -0.00385   0.01978   0.99980
 This molecule is an asymmetric top.
 Rotational symmetry number  1.
 Warning -- assumption of classical behavior for rotation
           may cause significant error
 Rotational temperatures (Kelvin)      0.12688     0.01920     0.01794
 Rotational constants (GHZ):           2.64378     0.40014     0.37385
 Zero-point vibrational energy     277405.7 (Joules/Mol)
                                   66.30155 (Kcal/Mol)
 Warning -- explicit consideration of  15 degrees of freedom as
           vibrations may cause significant error
 Vibrational temperatures:     37.82   111.58   226.00   287.80   367.29
          (Kelvin)            406.40   469.27   533.28   594.74   641.53
                              694.19   700.48   709.25   786.67   883.88
                              913.68  1063.90  1099.34  1225.96  1228.52
                             1376.67  1424.64  1446.99  1477.28  1535.90
                             1604.76  1612.78  1625.59  1640.06  1707.23
                             1721.30  1895.67  1909.51  2066.80  2195.10
                             2385.30  2390.23  4654.56  4670.65  4681.20
                             4685.53  5039.14

 Zero-point correction=                           0.105658 (Hartree/Particle)
 Thermal correction to Energy=                    0.115402
 Thermal correction to Enthalpy=                  0.116347
 Thermal correction to Gibbs Free Energy=         0.068886
 Sum of electronic and zero-point Energies=          -1294.985888
 Sum of electronic and thermal Energies=             -1294.976144
 Sum of electronic and thermal Enthalpies=           -1294.975199
 Sum of electronic and thermal Free Energies=        -1295.022660

                     E (Thermal)             CV                S
                      KCal/Mol        Cal/Mol-Kelvin    Cal/Mol-Kelvin
 Total                   72.416             36.434             99.890
 Electronic               0.000              0.000              0.000
 Translational            0.889              2.981             41.631
 Rotational               0.889              2.981             31.075
 Vibrational             70.639             30.472             27.184
 Vibration     1          0.593              1.985              6.092
 Vibration     2          0.599              1.964              3.952
 Vibration     3          0.621              1.895              2.585
 Vibration     4          0.638              1.840              2.133
 Vibration     5          0.666              1.754              1.694
 Vibration     6          0.681              1.706              1.519
 Vibration     7          0.710              1.623              1.279
 Vibration     8          0.743              1.532              1.077
 Vibration     9          0.777              1.441              0.915
 Vibration    10          0.805              1.370              0.808
 Vibration    11          0.839              1.289              0.703
 Vibration    12          0.843              1.279              0.692
 Vibration    13          0.849              1.266              0.676
 Vibration    14          0.902              1.147              0.551
 Vibration    15          0.974              1.002              0.426

 Optimization completed.
    -- Stationary point found.
 Normal termination of Gaussian 16 at Thu May 19 13:28:10 2022.
