 Gaussian 16, Revision C.01,
 Gaussian 16:  ES64L-G16RevC.01  3-Jul-2019

 -----------------------------------------------------
 #m062X/gen 6D OPT Freq=noraman SCRF=(SMD,Solvent=h2o)
 -----------------------------------------------------

 -------------------
 A.20.smd.a3b2e2.smd
 -------------------
 Symbolic Z-matrix:
 Charge = -1 Multiplicity = 1

 SCF Done:  E(RM062X) =  -2261.52533615     A.U. after   16 cycles
 SCF Done:  E(RM062X) =  -2261.53097581     A.U. after   14 cycles
 SCF Done:  E(RM062X) =  -2261.53213310     A.U. after   14 cycles
 SCF Done:  E(RM062X) =  -2261.53331499     A.U. after   15 cycles
 SCF Done:  E(RM062X) =  -2261.53383071     A.U. after   14 cycles
 SCF Done:  E(RM062X) =  -2261.53410438     A.U. after   13 cycles
 SCF Done:  E(RM062X) =  -2261.53422744     A.U. after   13 cycles
 SCF Done:  E(RM062X) =  -2261.53426735     A.U. after   12 cycles
 SCF Done:  E(RM062X) =  -2261.53429242     A.U. after   13 cycles
 SCF Done:  E(RM062X) =  -2261.53431188     A.U. after   12 cycles
 SCF Done:  E(RM062X) =  -2261.53427899     A.U. after   12 cycles
 SCF Done:  E(RM062X) =  -2261.53433800     A.U. after   12 cycles
 SCF Done:  E(RM062X) =  -2261.53433819     A.U. after   11 cycles
 SCF Done:  E(RM062X) =  -2261.53427923     A.U. after   11 cycles
 SCF Done:  E(RM062X) =  -2261.53427933     A.U. after    9 cycles
 SCF Done:  E(RM062X) =  -2261.53433826     A.U. after   12 cycles
 SCF Done:  E(RM062X) =  -2261.53433834     A.U. after    9 cycles
 SCF Done:  E(RM062X) =  -2261.53427928     A.U. after    9 cycles
 SCF Done:  E(RM062X) =  -2261.53433838     A.U. after   10 cycles
 Optimization completed.
    -- Stationary point found.
 Normal termination of Gaussian 16 at Sat May 28 02:10:36 2022.

 ------------------------------------------------------------------
 #N Geom=AllCheck Guess=TCheck SCRF=Check GenChk RM062X/ChkBas Freq
 ------------------------------------------------------------------

 Structure from the checkpoint file:  "/jobfs/41522503.gadi-pbs/Gau-3283977.chk"
 -------------------
 A.20.smd.a3b2e2.smd
 -------------------
 Charge = -1 Multiplicity = 1

                         Standard orientation:
 ---------------------------------------------------------------------
 Center     Atomic      Atomic             Coordinates (Angstroms)
 Number     Number       Type             X           Y           Z
 ---------------------------------------------------------------------
      1          6           0       -3.982819   -0.371939   -0.154114
      2         16           0       -4.997583   -1.760959    0.368301
      3          8           0       -6.310004   -1.151881    0.705269
      4          8           0       -5.034684   -2.612950   -0.855869
      5          7           0       -4.362022   -2.394162    1.633547
      6          1           0       -3.540504   -2.934941    1.352147
      7         16           0       -4.246231    0.433129   -1.666151
      8          6           0       -2.981677    1.547340   -1.355941
      9          6           0       -2.405329    1.294548   -0.143631
     10          6           0       -2.968708    0.188455    0.562169
     11         16           0       -1.032267    2.220796    0.457364
     12          6           0        0.368090    1.155736    0.225210
     13          8           0       -1.219927    2.424949    1.901259
     14          8           0       -0.874715    3.397497   -0.410710
     15          6           0        0.813838    0.380078    1.290718
     16          6           0        1.894150   -0.475049    1.080340
     17          6           0        2.510694   -0.557635   -0.170756
     18          6           0        2.030141    0.229763   -1.225589
     19          6           0        0.956256    1.091533   -1.038305
     20          1           0       -2.723698    2.317632   -2.073263
     21          1           0       -2.642354   -0.164673    1.534850
     22          1           0        0.335403    0.445485    2.263016
     23          1           0        2.263414   -1.083945    1.901626
     24          1           0        0.580685    1.698935   -1.857056
     25          6           0        3.682876   -1.483238   -0.389693
     26          7           0        4.962022   -0.770635   -0.478982
     27          1           0        2.499248    0.162630   -2.203675
     28          1           0        3.541895   -2.026508   -1.330147
     29          1           0        3.714110   -2.228028    0.424695
     30          6           0        5.290482   -0.138977    0.802930
     31          6           0        6.018096   -1.736553   -0.798564
     32          6           0        7.372136   -1.054417   -0.840355
     33          6           0        6.658199    0.515126    0.738538
     34          8           0        7.668071   -0.433017    0.406853
     35          1           0        5.281820   -0.889399    1.615474
     36          1           0        4.544130    0.625356    1.040398
     37          1           0        5.808169   -2.190396   -1.772407
     38          1           0        6.044701   -2.543820   -0.043548
     39          1           0        7.394533   -0.296156   -1.636615
     40          1           0        8.162071   -1.786013   -1.023827
     41          1           0        6.925445    0.933206    1.711482
     42          1           0        6.659746    1.321333   -0.009506
 ---------------------------------------------------------------------

 SCF Done:  E(RM062X) =  -2261.53433838     A.U. after    1 cycles

 The electronic state is 1-A.
 Alpha  occ. eigenvalues --  -90.16533 -90.14715 -89.98238 -19.66035 -19.66032
 Alpha  occ. eigenvalues --  -19.65506 -19.62608 -19.62552 -14.76317 -14.72644
 Alpha  occ. eigenvalues --  -10.61251 -10.60882 -10.60269 -10.59821 -10.58798
 Alpha  occ. eigenvalues --  -10.58793 -10.58544 -10.57817 -10.57810 -10.57627
 Alpha  occ. eigenvalues --  -10.57346 -10.56661 -10.56628 -10.56472 -10.56403
 Alpha  occ. eigenvalues --   -8.47846  -8.45495  -8.32642  -6.40039  -6.39963
 Alpha  occ. eigenvalues --   -6.39894  -6.37725  -6.37658  -6.37598  -6.24633
 Alpha  occ. eigenvalues --   -6.24401  -6.24200  -1.24801  -1.21618  -1.16616
 Alpha  occ. eigenvalues --   -1.14075  -1.09779  -1.03912  -1.01821  -0.98658
 Alpha  occ. eigenvalues --   -0.97239  -0.90511  -0.87404  -0.86802  -0.86288
 Alpha  occ. eigenvalues --   -0.85499  -0.82095  -0.77736  -0.73940  -0.73530
 Alpha  occ. eigenvalues --   -0.72168  -0.71117  -0.68038  -0.64986  -0.64706
 Alpha  occ. eigenvalues --   -0.63800  -0.62879  -0.61053  -0.58133  -0.57558
 Alpha  occ. eigenvalues --   -0.56597  -0.55649  -0.55026  -0.54730  -0.54111
 Alpha  occ. eigenvalues --   -0.53509  -0.53202  -0.52542  -0.51969  -0.50607
 Alpha  occ. eigenvalues --   -0.50255  -0.50089  -0.49319  -0.49075  -0.48181
 Alpha  occ. eigenvalues --   -0.46153  -0.45110  -0.44289  -0.44126  -0.43301
 Alpha  occ. eigenvalues --   -0.42573  -0.42324  -0.41776  -0.41518  -0.41362
 Alpha  occ. eigenvalues --   -0.40103  -0.39960  -0.39667  -0.38856  -0.37994
 Alpha  occ. eigenvalues --   -0.37619  -0.36221  -0.34087  -0.33770  -0.33274
 Alpha  occ. eigenvalues --   -0.32541  -0.32079  -0.31169  -0.30788  -0.29249
 Alpha virt. eigenvalues --   -0.03134  -0.00711   0.00506   0.01012   0.02216
 Alpha virt. eigenvalues --    0.02578   0.02827   0.03292   0.03509   0.03839
 Alpha virt. eigenvalues --    0.04079   0.04084   0.04477   0.04758   0.05055

 Mulliken charges:
               1
     1  C   -1.903521
     2  S    1.854567
     3  O   -0.676482
     4  O   -0.690761
     5  N   -1.002950
     6  H    0.418171
     7  S    0.337367
     8  C   -0.155614
     9  C   -0.694031
    10  C    1.053947
    11  S    0.527970
    12  C   -0.156495
    13  O   -0.482918
    14  O   -0.518649
    15  C   -0.426410
    16  C   -0.015722
    17  C    0.226132
    18  C   -0.583402
    19  C    0.528912
    20  H    0.337554
    21  H    0.307488
    22  H    0.285029
    23  H    0.262712
    24  H    0.284926
    25  C   -0.584622
    26  N   -0.428155
    27  H    0.263053
    28  H    0.253252
    29  H    0.239222
    30  C   -0.071335
    31  C   -0.186749
    32  C   -0.478402
    33  C   -0.565346
    34  O   -0.446122
    35  H    0.234636
    36  H    0.252934
    37  H    0.241101
    38  H    0.234965
    39  H    0.226371
    40  H    0.234961
    41  H    0.235681
    42  H    0.226736
 Sum of Mulliken charges =  -1.00000

 Dipole moment (field-independent basis, Debye):
    X=             28.2676    Y=              2.3430    Z=             -6.3643  Tot=             29.0698
 Quadrupole moment (field-independent basis, Debye-Ang):
   XX=           -344.7502   YY=           -211.8701   ZZ=           -176.2224
   XY=            -56.7939   XZ=             15.8109   YZ=             -5.0671

  Exact polarizability:     390.363     -10.429     352.638       6.965     -26.089     375.221
 Approx polarizability:     317.000     -10.007     300.179      10.583     -21.539     340.699

                      1                      2                      3
                      A                      A                      A
 Frequencies --     11.3917                15.8462                22.2740
 Red. masses --      9.4397                 4.4700                 8.5167
 Frc consts  --      0.0007                 0.0007                 0.0025
 IR Inten    --      8.3806                 2.8719                 0.1029

                      4                      5                      6
                      A                      A                      A
 Frequencies --     34.1528                41.8870                45.1677
 Red. masses --     10.1648                 4.8107                 4.1792
 Frc consts  --      0.0070                 0.0050                 0.0050
 IR Inten    --      2.7412                 2.1236                 1.9043

                      7                      8                      9
                      A                      A                      A
 Frequencies --     54.9520                92.8027               104.1094
 Red. masses --      4.1537                11.8805                 6.6289
 Frc consts  --      0.0074                 0.0603                 0.0423
 IR Inten    --      0.4751                11.4667                 6.4903

                     10                     11                     12
                      A                      A                      A
 Frequencies --    137.5344               150.6892               178.5873
 Red. masses --      6.0163                 6.5814                 6.8526
 Frc consts  --      0.0671                 0.0881                 0.1288
 IR Inten    --      1.8722                 8.0233                 2.3789

                     13                     14                     15
                      A                      A                      A
 Frequencies --    194.6543               224.2384               231.4741
 Red. masses --      6.4093                 6.5900                 6.1048
 Frc consts  --      0.1431                 0.1952                 0.1927
 IR Inten    --     10.0361                 3.6220                 7.2643

                     16                     17                     18
                      A                      A                      A
 Frequencies --    240.5795               276.8962               286.8728
 Red. masses --     12.0801                 1.8684                 3.9362
 Frc consts  --      0.4119                 0.0844                 0.1909
 IR Inten    --      3.7489                 1.7617                19.1762

                     19                     20                     21
                      A                      A                      A
 Frequencies --    310.6909               313.4278               324.9768
 Red. masses --      6.2630                 6.3714                 6.0229
 Frc consts  --      0.3562                 0.3688                 0.3748
 IR Inten    --      9.9707                 1.3858                13.8265

                     22                     23                     24
                      A                      A                      A
 Frequencies --    341.1698               367.1218               374.3572
 Red. masses --      3.9570                 3.7989                 4.1807
 Frc consts  --      0.2714                 0.3017                 0.3452
 IR Inten    --      6.8223                17.6759                24.0733

                     25                     26                     27
                      A                      A                      A
 Frequencies --    400.2065               413.5270               423.3171
 Red. masses --      3.1006                 2.9290                 2.9331
 Frc consts  --      0.2926                 0.2951                 0.3097
 IR Inten    --     30.0036                 0.9517                63.3018

                     28                     29                     30
                      A                      A                      A
 Frequencies --    451.6944               457.2191               474.4315
 Red. masses --      2.1843                 4.1821                 7.1289
 Frc consts  --      0.2626                 0.5151                 0.9454
 IR Inten    --      3.4329                 8.3068                15.3729

                     31                     32                     33
                      A                      A                      A
 Frequencies --    498.8038               502.2649               511.1634
 Red. masses --      2.0289                 2.7642                 7.1376
 Frc consts  --      0.2974                 0.4109                 1.0988
 IR Inten    --    155.5315                36.8438                81.3201

                     34                     35                     36
                      A                      A                      A
 Frequencies --    517.2477               533.8216               560.4798
 Red. masses --      5.7507                 7.9601                 6.1655
 Frc consts  --      0.9065                 1.3365                 1.1411
 IR Inten    --     55.2626                61.1564                31.8202

                     37                     38                     39
                      A                      A                      A
 Frequencies --    578.4427               601.0162               627.3493
 Red. masses --      8.6264                 5.5770                 4.0787
 Frc consts  --      1.7006                 1.1869                 0.9458
 IR Inten    --    458.2475               100.0720               142.1638

                     40                     41                     42
                      A                      A                      A
 Frequencies --    639.4077               644.3900               691.4739
 Red. masses --      5.4997                 2.1283                 5.4343
 Frc consts  --      1.3248                 0.5207                 1.5309
 IR Inten    --      0.2987                11.6066               101.4688

                     43                     44                     45
                      A                      A                      A
 Frequencies --    700.1369               750.8772               819.9256
 Red. masses --      6.9336                 4.2000                 1.4345
 Frc consts  --      2.0025                 1.3952                 0.5682
 IR Inten    --    107.1897                27.6425                25.2586

                     46                     47                     48
                      A                      A                      A
 Frequencies --    824.2170               843.6709               866.3762
 Red. masses --      1.9482                 3.3892                 1.2717
 Frc consts  --      0.7798                 1.4213                 0.5624
 IR Inten    --     45.5741                10.5300                 1.2537

                     49                     50                     51
                      A                      A                      A
 Frequencies --    869.7875               876.1572               884.1341
 Red. masses --      2.7875                 2.0031                 1.4813
 Frc consts  --      1.2425                 0.9060                 0.6822
 IR Inten    --     50.6470                11.2715                20.3945

                     52                     53                     54
                      A                      A                      A
 Frequencies --    886.9390               904.0086               906.4150
 Red. masses --      2.2750                 5.8840                 2.9233
 Frc consts  --      1.0544                 2.8332                 1.4151
 IR Inten    --     11.4274                71.1000                74.5721

                     55                     56                     57
                      A                      A                      A
 Frequencies --    950.8953               962.5698               998.1448
 Red. masses --      2.0610                12.1416                 1.3469
 Frc consts  --      1.0980                 6.6281                 0.7906
 IR Inten    --     39.5568               239.7201                 7.5443

                     58                     59                     60
                      A                      A                      A
 Frequencies --   1012.9704              1016.6063              1030.0716
 Red. masses --      1.5506                 1.5260                 3.5345
 Frc consts  --      0.9374                 0.9292                 2.2096
 IR Inten    --      2.4400                 2.1912                53.5826

                     61                     62                     63
                      A                      A                      A
 Frequencies --   1042.2997              1043.6441              1066.2314
 Red. masses --      3.8545                 2.6867                 1.9607
 Frc consts  --      2.4672                 1.7241                 1.3133
 IR Inten    --    334.4978                43.8147                15.7469

                     64                     65                     66
                      A                      A                      A
 Frequencies --   1071.2697              1092.2060              1102.3835
 Red. masses --      2.7411                 3.7344                 1.7837
 Frc consts  --      1.8534                 2.6247                 1.2772
 IR Inten    --    619.2121               127.7388                14.8335

                     67                     68                     69
                      A                      A                      A
 Frequencies --   1127.9878              1130.9525              1138.5105
 Red. masses --      4.2856                 2.0926                 1.3644
 Frc consts  --      3.2127                 1.5770                 1.0420
 IR Inten    --    410.3716                86.4987                16.9316

                     70                     71                     72
                      A                      A                      A
 Frequencies --   1148.6312              1151.9674              1164.2937
 Red. masses --      3.2351                 2.3078                 2.6229
 Frc consts  --      2.5148                 1.8044                 2.0949
 IR Inten    --    242.9825                65.5377                73.5910

                     73                     74                     75
                      A                      A                      A
 Frequencies --   1179.7386              1182.4283              1204.4320
 Red. masses --      4.8657                 2.7949                 1.1754
 Frc consts  --      3.9900                 2.3023                 1.0046
 IR Inten    --    208.7896               442.2220                 6.4560

                     76                     77                     78
                      A                      A                      A
 Frequencies --   1209.8350              1210.6270              1244.3634
 Red. masses --      2.7457                 1.3473                 1.0867
 Frc consts  --      2.3679                 1.1634                 0.9915
 IR Inten    --      5.7112                20.6272                 2.4931

                     79                     80                     81
                      A                      A                      A
 Frequencies --   1255.2496              1269.1418              1273.6214
 Red. masses --      2.5382                 8.0792                 1.4917
 Frc consts  --      2.3564                 7.6673                 1.4256
 IR Inten    --      3.6684               461.5780                50.3300

                     82                     83                     84
                      A                      A                      A
 Frequencies --   1307.2151              1326.7468              1336.0104
 Red. masses --      1.3295                 1.4502                 1.6104
 Frc consts  --      1.3385                 1.5041                 1.6936
 IR Inten    --     42.2059                37.8411                 2.9789

                     85                     86                     87
                      A                      A                      A
 Frequencies --   1348.0071              1365.7582              1377.8067
 Red. masses --      1.1803                 2.4654                 1.2816
 Frc consts  --      1.2637                 2.7095                 1.4334
 IR Inten    --      3.0394                39.9935                 5.4753

                     88                     89                     90
                      A                      A                      A
 Frequencies --   1386.9382              1403.7871              1418.8078
 Red. masses --      3.8885                 1.4445                 1.4562
 Frc consts  --      4.4070                 1.6771                 1.7272
 IR Inten    --      4.7917                63.8952                14.0177

                     91                     92                     93
                      A                      A                      A
 Frequencies --   1434.2698              1451.6231              1456.6430
 Red. masses --      1.4163                 1.9970                 2.2616
 Frc consts  --      1.7166                 2.4794                 2.8273
 IR Inten    --      1.5996                20.9512                20.1885

                     94                     95                     96
                      A                      A                      A
 Frequencies --   1493.3344              1500.4040              1502.6530
 Red. masses --      1.0826                 1.1057                 1.0912
 Frc consts  --      1.4224                 1.4666                 1.4517
 IR Inten    --      0.8625                17.7972                 2.3756

                     97                     98                     99
                      A                      A                      A
 Frequencies --   1509.5743              1513.1511              1514.0415
 Red. masses --      1.1024                 6.6844                 1.1448
 Frc consts  --      1.4801                 9.0173                 1.5461
 IR Inten    --     11.3086                53.9199                 3.6836

                    100                    101                    102
                      A                      A                      A
 Frequencies --   1544.1573              1602.1306              1659.5160
 Red. masses --      2.5163                 7.0108                 7.1151
 Frc consts  --      3.5350                10.6027                11.5450
 IR Inten    --      2.9649                32.4064                 3.6230

                    103                    104                    105
                      A                      A                      A
 Frequencies --   1677.7130              2991.0054              2995.3342
 Red. masses --      6.3233                 1.0715                 1.0712
 Frc consts  --     10.4865                 5.6479                 5.6628
 IR Inten    --     26.1436                87.3093               172.0675

                    106                    107                    108
                      A                      A                      A
 Frequencies --   3012.5408              3059.3446              3059.6418
 Red. masses --      1.0704                 1.0686                 1.0690
 Frc consts  --      5.7234                 5.8929                 5.8959
 IR Inten    --    107.5875                62.6281               108.6429

                    109                    110                    111
                      A                      A                      A
 Frequencies --   3123.3720              3134.6336              3136.8359
 Red. masses --      1.0920                 1.0908                 1.0904
 Frc consts  --      6.2765                 6.3151                 6.3214
 IR Inten    --     26.2602                47.3782                39.4061

                    112                    113                    114
                      A                      A                      A
 Frequencies --   3162.5542              3163.7352              3227.4136
 Red. masses --      1.0967                 1.0972                 1.0913
 Frc consts  --      6.4625                 6.4704                 6.6972
 IR Inten    --     45.9719                35.1822                 4.5825

                    115                    116                    117
                      A                      A                      A
 Frequencies --   3229.1823              3243.6297              3252.7336
 Red. masses --      1.0899                 1.0955                 1.0942
 Frc consts  --      6.6959                 6.7908                 6.8209
 IR Inten    --      4.4959                 1.6041                 2.3387

                    118                    119                    120
                      A                      A                      A
 Frequencies --   3270.8984              3295.4950              3514.2953
 Red. masses --      1.0951                 1.0961                 1.0739
 Frc consts  --      6.9031                 7.0139                 7.8141
 IR Inten    --     15.7091                48.0292                48.4870

 - Thermochemistry -
 -------------------
 Temperature   298.150 Kelvin.  Pressure   1.00000 Atm.
 Atom     1 has atomic number  6 and mass  12.00000

 Molecular mass:   401.02996 amu.
 Principal axes and moments of inertia in atomic units:
                           1         2         3
     Eigenvalues --  4883.42949********************
           X            0.99997  -0.00707  -0.00194
           Y            0.00705   0.99994  -0.00778
           Z            0.00199   0.00777   0.99997
 This molecule is an asymmetric top.
 Rotational symmetry number  1.
 Warning -- assumption of classical behavior for rotation
           may cause significant error
 Rotational temperatures (Kelvin)      0.01774     0.00319     0.00296
 Rotational constants (GHZ):           0.36956     0.06650     0.06171
 Zero-point vibrational energy     839292.6 (Joules/Mol)
                                  200.59574 (Kcal/Mol)
 Warning -- explicit consideration of  38 degrees of freedom as
           vibrations may cause significant error
 Vibrational temperatures:     16.39    22.80    32.05    49.14    60.27
          (Kelvin)             64.99    79.06   133.52   149.79   197.88
                              216.81   256.95   280.06   322.63   333.04
                              346.14   398.39   412.75   447.01   450.95
                              467.57   490.87   528.21   538.62   575.81
                              594.97   609.06   649.89   657.84   682.60
                              717.67   722.65   735.45   744.20   768.05
                              806.41   832.25   864.73   902.62   919.97
                              927.13   994.88  1007.34  1080.34  1179.69
                             1185.86  1213.85  1246.52  1251.43  1260.59
                             1272.07  1276.11  1300.67  1304.13  1368.13
                             1384.92  1436.11  1457.44  1462.67  1482.04
                             1499.64  1501.57  1534.07  1541.32  1571.44
                             1586.08  1622.92  1627.19  1638.06  1652.62
                             1657.42  1675.16  1697.38  1701.25  1732.91
                             1740.68  1741.82  1790.36  1806.02  1826.01
                             1832.46  1880.79  1908.89  1922.22  1939.48
                             1965.02  1982.36  1995.49  2019.74  2041.35
                             2063.59  2088.56  2095.78  2148.58  2158.75
                             2161.98  2171.94  2177.09  2178.37  2221.70
                             2305.11  2387.67  2413.85  4303.39  4309.62
                             4334.37  4401.71  4402.14  4493.84  4510.04
                             4513.21  4550.21  4551.91  4643.53  4646.07
                             4666.86  4679.96  4706.09  4741.48  5056.29

 Zero-point correction=                           0.319670 (Hartree/Particle)
 Thermal correction to Energy=                    0.342634
 Thermal correction to Enthalpy=                  0.343578
 Thermal correction to Gibbs Free Energy=         0.262627
 Sum of electronic and zero-point Energies=          -2261.214669
 Sum of electronic and thermal Energies=             -2261.191705
 Sum of electronic and thermal Enthalpies=           -2261.190760
 Sum of electronic and thermal Free Energies=        -2261.271712

                     E (Thermal)             CV                S
                      KCal/Mol        Cal/Mol-Kelvin    Cal/Mol-Kelvin
 Total                  215.006             87.373            170.377
 Electronic               0.000              0.000              0.000
 Translational            0.889              2.981             43.858
 Rotational               0.889              2.981             36.603
 Vibrational            213.228             81.411             89.915
 Vibration     1          0.593              1.987              7.752
 Vibration     2          0.593              1.986              7.097
 Vibration     3          0.593              1.985              6.420
 Vibration     4          0.594              1.983              5.572
 Vibration     5          0.595              1.980              5.168
 Vibration     6          0.595              1.979              5.018
 Vibration     7          0.596              1.976              4.631
 Vibration     8          0.602              1.954              3.600
 Vibration     9          0.605              1.946              3.376
 Vibration    10          0.614              1.916              2.838
 Vibration    11          0.618              1.902              2.664
 Vibration    12          0.629              1.869              2.343
 Vibration    13          0.635              1.847              2.183
 Vibration    14          0.649              1.804              1.925
 Vibration    15          0.653              1.793              1.867
 Vibration    16          0.658              1.778              1.799
 Vibration    17          0.678              1.716              1.553
 Vibration    18          0.684              1.698              1.492
 Vibration    19          0.700              1.653              1.359
 Vibration    20          0.701              1.648              1.344
 Vibration    21          0.709              1.626              1.285
 Vibration    22          0.721              1.593              1.207
 Vibration    23          0.740              1.540              1.092
 Vibration    24          0.745              1.525              1.062
 Vibration    25          0.766              1.470              0.962
 Vibration    26          0.777              1.441              0.914
 Vibration    27          0.785              1.420              0.881
 Vibration    28          0.810              1.357              0.791
 Vibration    29          0.815              1.345              0.774
 Vibration    30          0.831              1.307              0.725
 Vibration    31          0.854              1.253              0.661
 Vibration    32          0.858              1.245              0.652
 Vibration    33          0.866              1.225              0.631
 Vibration    34          0.872              1.212              0.616
 Vibration    35          0.889              1.175              0.579
 Vibration    36          0.916              1.117              0.523
 Vibration    37          0.935              1.078              0.488
 Vibration    38          0.959              1.030              0.448

                           ! Non-Optimized Parameters !
 Normal termination of Gaussian 16 at Sat May 28 02:45:01 2022.
