 Gaussian 16, Revision C.01,
 Gaussian 16:  ES64L-G16RevC.01  3-Jul-2019

 -----------------------------------------------------
 #m062X/gen 6D OPT Freq=noraman SCRF=(SMD,Solvent=h2o)
 -----------------------------------------------------

 -----------------
 A.21.smd.a3b3.smd
 -----------------
 Symbolic Z-matrix:
 Charge = -1 Multiplicity = 1

 SCF Done:  E(RM062X) =  -1895.46422151     A.U. after   15 cycles
 SCF Done:  E(RM062X) =  -1895.46976425     A.U. after   13 cycles
 SCF Done:  E(RM062X) =  -1895.47031493     A.U. after   13 cycles
 SCF Done:  E(RM062X) =  -1895.47038670     A.U. after   11 cycles
 SCF Done:  E(RM062X) =  -1895.47038340     A.U. after   11 cycles
 SCF Done:  E(RM062X) =  -1895.47043821     A.U. after   12 cycles
 SCF Done:  E(RM062X) =  -1895.47040461     A.U. after   14 cycles
 SCF Done:  E(RM062X) =  -1895.46936880     A.U. after   14 cycles
 SCF Done:  E(RM062X) =  -1895.45760891     A.U. after   15 cycles
 SCF Done:  E(RM062X) =  -1895.46470102     A.U. after   13 cycles
 SCF Done:  E(RM062X) =  -1895.47455981     A.U. after   15 cycles
 SCF Done:  E(RM062X) =  -1895.47440945     A.U. after   17 cycles
 SCF Done:  E(RM062X) =  -1895.47445009     A.U. after   13 cycles
 SCF Done:  E(RM062X) =  -1895.47415131     A.U. after   14 cycles
 SCF Done:  E(RM062X) =  -1895.47472569     A.U. after   13 cycles
 SCF Done:  E(RM062X) =  -1895.47474425     A.U. after   13 cycles
 SCF Done:  E(RM062X) =  -1895.47475409     A.U. after   12 cycles
 SCF Done:  E(RM062X) =  -1895.47475475     A.U. after   11 cycles
 SCF Done:  E(RM062X) =  -1895.47475495     A.U. after   11 cycles
 Optimization completed.
    -- Stationary point found.
 Normal termination of Gaussian 16 at Fri May 27 01:19:02 2022.

 ------------------------------------------------------------------
 #N Geom=AllCheck Guess=TCheck SCRF=Check GenChk RM062X/ChkBas Freq
 ------------------------------------------------------------------

 Structure from the checkpoint file:  "/jobfs/41417049.gadi-pbs/Gau-2832614.chk"
 -----------------
 A.21.smd.a3b3.smd
 -----------------
 Charge = -1 Multiplicity = 1

                         Standard orientation:
 ---------------------------------------------------------------------
 Center     Atomic      Atomic             Coordinates (Angstroms)
 Number     Number       Type             X           Y           Z
 ---------------------------------------------------------------------
      1          6           0        1.482211   -0.006845    0.095297
      2         16           0        3.264935   -0.273123   -0.004569
      3          8           0        3.819077    0.989387    0.539569
      4          8           0        3.453245   -1.470541    0.856012
      5          7           0        3.676154   -0.433944   -1.492647
      6          1           0        3.405849   -1.370899   -1.803876
      7         16           0        0.840381    1.587584    0.039482
      8          6           0       -0.770206    0.977154    0.005041
      9          6           0       -0.767607   -0.399857    0.034454
     10          6           0        0.520088   -0.983526    0.087941
     11          6           0       -1.941386    1.872590   -0.020048
     12         16           0       -2.286118   -1.310230    0.039171
     13          8           0       -2.698771   -1.546493    1.431833
     14          8           0       -2.129962   -2.484917   -0.830232
     15          1           0        0.723657   -2.048847    0.109485
     16          6           0       -3.309048    1.226122    0.000652
     17          6           0       -3.385372   -0.121449   -0.713005
     18          8           0       -1.799746    3.085580   -0.017906
     19          1           0       -4.016948    1.915230   -0.466109
     20          1           0       -3.599188    1.119037    1.054114
     21          1           0       -3.089906   -0.056182   -1.764249
     22          1           0       -4.386551   -0.557681   -0.642389
 ---------------------------------------------------------------------

 SCF Done:  E(RM062X) =  -1895.47475495     A.U. after    1 cycles

 The electronic state is 1-A.
 Alpha  occ. eigenvalues --  -90.16773 -90.15150 -89.99353 -19.66984 -19.66530
 Alpha  occ. eigenvalues --  -19.66387 -19.63115 -19.63060 -14.72902 -10.68026
 Alpha  occ. eigenvalues --  -10.62276 -10.62220 -10.61966 -10.60060 -10.59276
 Alpha  occ. eigenvalues --  -10.57953  -8.48196  -8.45926  -8.33676  -6.40362
 Alpha  occ. eigenvalues --   -6.40308  -6.40237  -6.38160  -6.38103  -6.38011
 Alpha  occ. eigenvalues --   -6.25659  -6.25431  -6.25236  -1.25182  -1.22237
 Alpha  occ. eigenvalues --   -1.19833  -1.14246  -1.10605  -1.03196  -0.97401
 Alpha  occ. eigenvalues --   -0.94805  -0.88175  -0.87134  -0.82681  -0.75578
 Alpha  occ. eigenvalues --   -0.73381  -0.69251  -0.65068  -0.63103  -0.60776
 Alpha  occ. eigenvalues --   -0.59164  -0.57377  -0.57129  -0.56397  -0.55403
 Alpha  occ. eigenvalues --   -0.54713  -0.53035  -0.52545  -0.50487  -0.48841
 Alpha  occ. eigenvalues --   -0.48587  -0.47818  -0.45042  -0.44451  -0.43211
 Alpha  occ. eigenvalues --   -0.42670  -0.42337  -0.40468  -0.40177  -0.39015
 Alpha  occ. eigenvalues --   -0.37701  -0.37180  -0.35814  -0.34474  -0.33962
 Alpha  occ. eigenvalues --   -0.33442  -0.29802
 Alpha virt. eigenvalues --   -0.06691   0.00875   0.02061   0.02250   0.02693
 Alpha virt. eigenvalues --    0.03491   0.03767   0.04028   0.04326   0.05161
 Alpha virt. eigenvalues --    0.05488   0.05712   0.06359   0.06420   0.07306

 Mulliken charges:
               1
     1  C   -1.378051
     2  S    1.747671
     3  O   -0.731970
     4  O   -0.691538
     5  N   -0.884343
     6  H    0.411061
     7  S    0.312051
     8  C   -0.142222
     9  C   -0.921407
    10  C    0.778458
    11  C    0.281582
    12  S    1.453950
    13  O   -0.549636
    14  O   -0.578580
    15  H    0.315267
    16  C   -0.568934
    17  C   -0.670450
    18  O   -0.512768
    19  H    0.307892
    20  H    0.331116
    21  H    0.346387
    22  H    0.344465
 Sum of Mulliken charges =  -1.00000

 Dipole moment (field-independent basis, Debye):
    X=            -18.7543    Y=              1.7346    Z=             -3.3293  Tot=             19.1264
 Quadrupole moment (field-independent basis, Debye-Ang):
   XX=           -175.4069   YY=           -147.1584   ZZ=           -126.8375
   XY=            -12.4608   XZ=              6.4977   YZ=              4.7682

  Exact polarizability:     277.744     -13.709     255.825      -7.894       0.481     169.840
 Approx polarizability:     221.209      -5.005     236.742      -6.276       0.387     159.996

                      1                      2                      3
                      A                      A                      A
 Frequencies --     32.3450                35.7003                73.0209
 Red. masses --      6.4222                 7.7582                10.3376
 Frc consts  --      0.0040                 0.0058                 0.0325
 IR Inten    --      9.0859                 2.4365                21.0877

                      4                      5                      6
                      A                      A                      A
 Frequencies --     95.2137               115.8881               152.5977
 Red. masses --     12.9486                10.8589                 6.6680
 Frc consts  --      0.0692                 0.0859                 0.0915
 IR Inten    --      7.1543                 0.2612                 3.7788

                      7                      8                      9
                      A                      A                      A
 Frequencies --    184.9788               205.8532               219.8988
 Red. masses --      3.7200                10.0115                 7.9072
 Frc consts  --      0.0750                 0.2500                 0.2253
 IR Inten    --      0.8951                 7.7017                 3.0247

                     10                     11                     12
                      A                      A                      A
 Frequencies --    268.8900               296.3160               303.0714
 Red. masses --      4.1684                 3.8543                 9.4716
 Frc consts  --      0.1776                 0.1994                 0.5126
 IR Inten    --     27.3272                 6.6953                11.7952

                     13                     14                     15
                      A                      A                      A
 Frequencies --    329.0440               350.2097               385.5569
 Red. masses --      7.3635                 6.6907                 7.8136
 Frc consts  --      0.4697                 0.4835                 0.6843
 IR Inten    --      7.2357                45.5294                26.3796

                     16                     17                     18
                      A                      A                      A
 Frequencies --    425.2010               443.5698               464.0525
 Red. masses --      3.1976                 4.7007                 4.1107
 Frc consts  --      0.3406                 0.5449                 0.5216
 IR Inten    --    205.7419                26.7094                55.7421

                     19                     20                     21
                      A                      A                      A
 Frequencies --    484.3028               492.9912               527.4988
 Red. masses --      7.0093                 2.7568                 4.5616
 Frc consts  --      0.9686                 0.3948                 0.7478
 IR Inten    --     51.8356               160.6786                70.6952

                     22                     23                     24
                      A                      A                      A
 Frequencies --    549.6378               559.4562               589.9015
 Red. masses --      6.1253                 8.2591                 6.4548
 Frc consts  --      1.0903                 1.5231                 1.3234
 IR Inten    --     17.9021                71.6417                79.2741

                     25                     26                     27
                      A                      A                      A
 Frequencies --    605.5721               647.1790               693.4084
 Red. masses --      5.5232                 4.7808                 5.2586
 Frc consts  --      1.1934                 1.1798                 1.4897
 IR Inten    --    225.2891                81.4888                29.5107

                     28                     29                     30
                      A                      A                      A
 Frequencies --    724.1233               754.8629               843.0699
 Red. masses --      8.1295                 4.1365                 2.6219
 Frc consts  --      2.5115                 1.3887                 1.0980
 IR Inten    --      5.2001               115.9031                52.2054

                     31                     32                     33
                      A                      A                      A
 Frequencies --    880.5681               921.1147               968.2826
 Red. masses --      1.4268                 5.6562                12.0585
 Frc consts  --      0.6518                 2.8275                 6.6611
 IR Inten    --     21.4575               184.1208               381.8859

                     34                     35                     36
                      A                      A                      A
 Frequencies --    977.1320              1017.3236              1051.8512
 Red. masses --      2.0974                 2.9935                 5.0740
 Frc consts  --      1.1799                 1.8254                 3.3076
 IR Inten    --     24.8896                 9.1161               308.1368

                     37                     38                     39
                      A                      A                      A
 Frequencies --   1073.9157              1079.2077              1116.5997
 Red. masses --      2.6212                 2.8317                 8.4287
 Frc consts  --      1.7811                 1.9432                 6.1917
 IR Inten    --     18.7187               513.3951               389.3766

                     40                     41                     42
                      A                      A                      A
 Frequencies --   1139.2978              1174.6712              1190.2059
 Red. masses --      2.8142                 1.2066                 1.6455
 Frc consts  --      2.1522                 0.9810                 1.3734
 IR Inten    --    332.1287                37.6121                10.5780

                     43                     44                     45
                      A                      A                      A
 Frequencies --   1203.7423              1228.2290              1258.5980
 Red. masses --      4.3536                 1.4376                11.8472
 Frc consts  --      3.7168                 1.2778                11.0570
 IR Inten    --    519.8297               147.5779               512.7435

                     46                     47                     48
                      A                      A                      A
 Frequencies --   1318.2534              1345.7697              1374.4554
 Red. masses --      2.8913                 1.4305                 2.0904
 Frc consts  --      2.9603                 1.5264                 2.3267
 IR Inten    --    226.1643                18.3469                97.6646

                     49                     50                     51
                      A                      A                      A
 Frequencies --   1388.7962              1445.7113              1449.4072
 Red. masses --      5.1261                 1.0730                 1.0919
 Frc consts  --      5.8253                 1.3213                 1.3515
 IR Inten    --     16.5700                17.7421                24.8348

                     52                     53                     54
                      A                      A                      A
 Frequencies --   1492.8625              1594.6592              1765.0634
 Red. masses --      7.7095                 8.1422                12.3949
 Frc consts  --     10.1231                12.1992                22.7517
 IR Inten    --    213.5293                59.1188               829.0509

                     55                     56                     57
                      A                      A                      A
 Frequencies --   3096.4079              3125.9750              3173.2936
 Red. masses --      1.0671                 1.0593                 1.0976
 Frc consts  --      6.0280                 6.0985                 6.5123
 IR Inten    --      6.7039                 5.1566                 0.7370

                     58                     59                     60
                      A                      A                      A
 Frequencies --   3191.5834              3265.8607              3504.6119
 Red. masses --      1.1091                 1.0964                 1.0738
 Frc consts  --      6.6565                 6.8901                 7.7703
 IR Inten    --      6.5427                15.6060                59.6338

 - Thermochemistry -
 -------------------
 Temperature   298.150 Kelvin.  Pressure   1.00000 Atm.
 Atom     1 has atomic number  6 and mass  12.00000

 Molecular mass:   279.94081 amu.
 Principal axes and moments of inertia in atomic units:
                           1         2         3
     Eigenvalues --  2437.243106852.292908532.89570
           X            0.99993  -0.01212   0.00021
           Y            0.01212   0.99991   0.00631
           Z           -0.00028  -0.00631   0.99998
 This molecule is an asymmetric top.
 Rotational symmetry number  1.
 Warning -- assumption of classical behavior for rotation
           may cause significant error
 Rotational temperatures (Kelvin)      0.03554     0.01264     0.01015
 Rotational constants (GHZ):           0.74048     0.26338     0.21150
 Zero-point vibrational energy     362868.4 (Joules/Mol)
                                   86.72763 (Kcal/Mol)
 Warning -- explicit consideration of  25 degrees of freedom as
           vibrations may cause significant error
 Vibrational temperatures:     46.54    51.36   105.06   136.99   166.74
          (Kelvin)            219.55   266.14   296.18   316.39   386.87
                              426.33   436.05   473.42   503.87   554.73
                              611.77   638.20   667.67   696.80   709.30
                              758.95   790.81   804.93   848.74   871.28
                              931.15   997.66  1041.85  1086.08  1212.99
                             1266.94  1325.28  1393.14  1405.87  1463.70
                             1513.38  1545.13  1552.74  1606.54  1639.20
                             1690.09  1712.44  1731.92  1767.15  1810.84
                             1896.67  1936.26  1977.53  1998.17  2080.06
                             2085.37  2147.90  2294.36  2539.53  4455.04
                             4497.58  4565.66  4591.98  4698.85  5042.35

 Zero-point correction=                           0.138209 (Hartree/Particle)
 Thermal correction to Energy=                    0.152871
 Thermal correction to Enthalpy=                  0.153816
 Thermal correction to Gibbs Free Energy=         0.094936
 Sum of electronic and zero-point Energies=          -1895.336546
 Sum of electronic and thermal Energies=             -1895.321884
 Sum of electronic and thermal Enthalpies=           -1895.320939
 Sum of electronic and thermal Free Energies=        -1895.379819

                     E (Thermal)             CV                S
                      KCal/Mol        Cal/Mol-Kelvin    Cal/Mol-Kelvin
 Total                   95.928             54.456            123.923
 Electronic               0.000              0.000              0.000
 Translational            0.889              2.981             42.786
 Rotational               0.889              2.981             33.321
 Vibrational             94.151             48.495             47.816
 Vibration     1          0.594              1.983              5.680
 Vibration     2          0.594              1.982              5.484
 Vibration     3          0.599              1.967              4.070
 Vibration     4          0.603              1.953              3.550
 Vibration     5          0.608              1.936              3.168
 Vibration     6          0.619              1.900              2.640
 Vibration     7          0.631              1.860              2.278
 Vibration     8          0.640              1.832              2.080
 Vibration     9          0.647              1.811              1.960
 Vibration    10          0.673              1.730              1.603
 Vibration    11          0.690              1.681              1.438
 Vibration    12          0.695              1.668              1.400
 Vibration    13          0.712              1.617              1.265
 Vibration    14          0.727              1.575              1.165
 Vibration    15          0.754              1.501              1.017
 Vibration    16          0.787              1.415              0.874
 Vibration    17          0.803              1.375              0.815
 Vibration    18          0.822              1.330              0.754
 Vibration    19          0.840              1.285              0.699
 Vibration    20          0.849              1.266              0.676
 Vibration    21          0.882              1.189              0.593
 Vibration    22          0.905              1.140              0.545
 Vibration    23          0.915              1.119              0.525
 Vibration    24          0.947              1.053              0.467
 Vibration    25          0.964              1.020              0.440

 Optimization completed.
    -- Stationary point found.
 Normal termination of Gaussian 16 at Fri May 27 01:25:28 2022.
