 Gaussian 16, Revision C.01,
 Gaussian 16:  ES64L-G16RevC.01  3-Jul-2019

 -----------------------------------------------------
 #m062X/gen 6D OPT Freq=noraman SCRF=(SMD,Solvent=h2o)
 -----------------------------------------------------

 ---------------
 A.22.smd.a3.smd
 ---------------
 Symbolic Z-matrix:
 Charge = -1 Multiplicity = 1

 SCF Done:  E(RM062X) =  -1991.29785818     A.U. after   16 cycles
 SCF Done:  E(RM062X) =  -1991.29803704     A.U. after   12 cycles
 SCF Done:  E(RM062X) =  -1991.29805303     A.U. after   11 cycles
 SCF Done:  E(RM062X) =  -1991.29805423     A.U. after   11 cycles
 SCF Done:  E(RM062X) =  -1991.29805679     A.U. after    9 cycles
 SCF Done:  E(RM062X) =  -1991.29805768     A.U. after    9 cycles
 SCF Done:  E(RM062X) =  -1991.29805791     A.U. after    9 cycles
 SCF Done:  E(RM062X) =  -1991.29805815     A.U. after    9 cycles
 SCF Done:  E(RM062X) =  -1991.29805827     A.U. after    8 cycles
 Optimization completed.
    -- Stationary point found.
 Normal termination of Gaussian 16 at Fri May 27 15:04:23 2022.

 ------------------------------------------------------------------
 #N Geom=AllCheck Guess=TCheck SCRF=Check GenChk RM062X/ChkBas Freq
 ------------------------------------------------------------------

 Structure from the checkpoint file:  "/jobfs/41479872.gadi-pbs/Gau-4174416.chk"
 ---------------
 A.22.smd.a3.smd
 ---------------
 Charge = -1 Multiplicity = 1

                         Standard orientation:
 ---------------------------------------------------------------------
 Center     Atomic      Atomic             Coordinates (Angstroms)
 Number     Number       Type             X           Y           Z
 ---------------------------------------------------------------------
      1          6           0       -2.282004    0.253144   -0.039406
      2         16           0       -4.081413    0.302824   -0.122691
      3          8           0       -4.385448   -0.897274   -0.952909
      4          8           0       -4.513169    0.175372    1.292729
      5          7           0       -4.530197    1.675237   -0.688871
      6          1           0       -4.331216    1.695162   -1.692417
      7         16           0       -1.451781   -1.258919   -0.136009
      8          6           0        0.054265   -0.431764    0.137821
      9          6           0       -0.085164    0.938874    0.260613
     10          6           0       -1.465832    1.321657    0.162335
     11         16           0        1.594310   -1.238768    0.133054
     12          7           0        0.952730    1.827560    0.379743
     13          1           0       -1.811579    2.347526    0.234977
     14          6           0        2.699450    0.166063   -0.133557
     15          6           0        2.248687    1.301106    0.785622
     16          8           0        1.886312   -1.837391    1.451601
     17          8           0        1.657107   -2.169503   -1.012268
     18          6           0        4.141155   -0.290758    0.122114
     19          6           0        5.136893    0.452483   -0.750509
     20          8           0        5.061375    1.848071   -0.467079
     21          1           0        0.701870    2.717019    0.799605
     22          1           0        2.547294    0.434386   -1.186763
     23          1           0        2.985260    2.101334    0.718502
     24          1           0        2.229610    0.940412    1.825097
     25          1           0        4.255911   -1.356890   -0.105431
     26          1           0        4.383491   -0.154571    1.182096
     27          1           0        4.909890    0.271717   -1.808517
     28          1           0        6.144914    0.077112   -0.541142
     29          1           0        5.714853    2.305964   -1.018567
 ---------------------------------------------------------------------

 SCF Done:  E(RM062X) =  -1991.29805827     A.U. after    1 cycles

 The electronic state is 1-A.
 Alpha  occ. eigenvalues --  -90.15734 -90.14758 -89.97852 -19.65549 -19.65329
 Alpha  occ. eigenvalues --  -19.65210 -19.62705 -19.62634 -14.79229 -14.72707
 Alpha  occ. eigenvalues --  -10.62833 -10.61269 -10.60366 -10.60047 -10.59544
 Alpha  occ. eigenvalues --  -10.59503 -10.57614 -10.56125  -8.47148  -8.45547
 Alpha  occ. eigenvalues --   -8.32147  -6.39311  -6.39256  -6.39188  -6.37777
 Alpha  occ. eigenvalues --   -6.37711  -6.37647  -6.24175  -6.23944  -6.23640
 Alpha  occ. eigenvalues --   -1.24022  -1.21733  -1.14829  -1.12911  -1.09931
 Alpha  occ. eigenvalues --   -1.07670  -0.99694  -0.97193  -0.93581  -0.87758
 Alpha  occ. eigenvalues --   -0.85148  -0.82847  -0.76927  -0.74396  -0.71369
 Alpha  occ. eigenvalues --   -0.68490  -0.64636  -0.63001  -0.62346  -0.60459
 Alpha  occ. eigenvalues --   -0.58690  -0.58541  -0.56162  -0.55803  -0.55302
 Alpha  occ. eigenvalues --   -0.53862  -0.53314  -0.52780  -0.50681  -0.49034
 Alpha  occ. eigenvalues --   -0.48669  -0.46885  -0.46687  -0.44978  -0.43814
 Alpha  occ. eigenvalues --   -0.43396  -0.42553  -0.41794  -0.41390  -0.40792
 Alpha  occ. eigenvalues --   -0.40139  -0.39703  -0.39068  -0.37216  -0.36575
 Alpha  occ. eigenvalues --   -0.36535  -0.35289  -0.33919  -0.32099  -0.30360
 Alpha  occ. eigenvalues --   -0.27254
 Alpha virt. eigenvalues --   -0.02047   0.01239   0.02360   0.02408   0.03009
 Alpha virt. eigenvalues --    0.03251   0.04062   0.04398   0.04867   0.05099
 Alpha virt. eigenvalues --    0.05672   0.05820   0.06156   0.06290   0.06684

 Mulliken charges:
               1
     1  C   -1.571130
     2  S    1.846277
     3  O   -0.716094
     4  O   -0.675388
     5  N   -0.945758
     6  H    0.413953
     7  S    0.352301
     8  C   -0.411570
     9  C    0.117162
    10  C   -0.164656
    11  S    1.440284
    12  N   -0.520379
    13  H    0.292715
    14  C   -0.854198
    15  C   -0.126198
    16  O   -0.517354
    17  O   -0.625567
    18  C   -0.336303
    19  C   -0.166660
    20  O   -0.817761
    21  H    0.490700
    22  H    0.339391
    23  H    0.293773
    24  H    0.293799
    25  H    0.269146
    26  H    0.281079
    27  H    0.225734
    28  H    0.223584
    29  H    0.569118
 Sum of Mulliken charges =  -1.00000

 Dipole moment (field-independent basis, Debye):
    X=             25.3277    Y=              8.7965    Z=             -2.5867  Tot=             26.9363
 Quadrupole moment (field-independent basis, Debye-Ang):
   XX=           -209.4497   YY=           -144.0437   ZZ=           -138.7372
   XY=             18.4223   XZ=             -3.1372   YZ=             -1.1889

  Exact polarizability:     305.696      -3.291     276.557      10.667       6.590     202.813
 Approx polarizability:     237.447       1.462     255.048       7.215       6.951     185.639

                      1                      2                      3
                      A                      A                      A
 Frequencies --     37.6723                42.4020                59.9527
 Red. masses --      6.9587                 8.1983                 5.2465
 Frc consts  --      0.0058                 0.0087                 0.0111
 IR Inten    --      1.2788                 3.7678                 3.2295

                      4                      5                      6
                      A                      A                      A
 Frequencies --     70.7419                81.4925               112.9274
 Red. masses --      8.3728                 7.8670                 7.3634
 Frc consts  --      0.0247                 0.0308                 0.0553
 IR Inten    --     15.6023                 1.7220                 6.5705

                      7                      8                      9
                      A                      A                      A
 Frequencies --    133.4930               159.1428               190.9610
 Red. masses --      5.0134                 5.8314                 6.6638
 Frc consts  --      0.0526                 0.0870                 0.1432
 IR Inten    --     31.4548                 1.7805                 0.2984

                     10                     11                     12
                      A                      A                      A
 Frequencies --    199.2386               231.2206               237.9737
 Red. masses --      6.0924                 4.8776                 3.8912
 Frc consts  --      0.1425                 0.1536                 0.1298
 IR Inten    --      1.5631                15.1699                 7.8443

                     13                     14                     15
                      A                      A                      A
 Frequencies --    248.4287               269.9148               290.8679
 Red. masses --      5.2125                 1.8761                 2.1140
 Frc consts  --      0.1895                 0.0805                 0.1054
 IR Inten    --     93.9467               115.2930                76.7523

                     16                     17                     18
                      A                      A                      A
 Frequencies --    312.5964               324.8376               333.7965
 Red. masses --      4.7973                 2.5267                 8.0110
 Frc consts  --      0.2762                 0.1571                 0.5259
 IR Inten    --     10.8733                60.4552                 2.4935

                     19                     20                     21
                      A                      A                      A
 Frequencies --    388.2873               410.0520               423.8318
 Red. masses --      4.1107                 3.7847                 3.3781
 Frc consts  --      0.3652                 0.3749                 0.3575
 IR Inten    --     37.8676               148.9969                10.7053

                     22                     23                     24
                      A                      A                      A
 Frequencies --    445.6628               467.0418               486.1346
 Red. masses --      1.7323                 4.5255                 2.4147
 Frc consts  --      0.2027                 0.5816                 0.3362
 IR Inten    --    213.1713                18.4381               211.1240

                     25                     26                     27
                      A                      A                      A
 Frequencies --    493.9057               512.3417               517.3383
 Red. masses --      2.3157                 7.5200                 8.0833
 Frc consts  --      0.3328                 1.1630                 1.2746
 IR Inten    --    155.7613                25.8944                52.9044

                     28                     29                     30
                      A                      A                      A
 Frequencies --    564.7279               567.0290               588.4608
 Red. masses --      5.6478                 5.4882                13.3576
 Frc consts  --      1.0612                 1.0397                 2.7253
 IR Inten    --     24.6190               112.3337               330.4722

                     31                     32                     33
                      A                      A                      A
 Frequencies --    618.6777               671.6370               684.9091
 Red. masses --      5.5462                 4.2356                 3.7271
 Frc consts  --      1.2508                 1.1257                 1.0301
 IR Inten    --    129.7758                28.6140               124.8725

                     34                     35                     36
                      A                      A                      A
 Frequencies --    719.2956               740.5684               863.5644
 Red. masses --      5.2496                 4.6291                 2.2080
 Frc consts  --      1.6003                 1.4958                 0.9702
 IR Inten    --      7.8098                30.3267                29.5247

                     37                     38                     39
                      A                      A                      A
 Frequencies --    871.3218               933.7248               959.2988
 Red. masses --      1.5027                 1.7151                 7.2241
 Frc consts  --      0.6722                 0.8810                 3.9169
 IR Inten    --     45.9465                 9.5095               105.2531

                     40                     41                     42
                      A                      A                      A
 Frequencies --    975.4476              1003.9865              1027.9313
 Red. masses --      3.6596                 2.3201                 2.9790
 Frc consts  --      2.0516                 1.3779                 1.8546
 IR Inten    --    226.7694                81.2881               258.5218

                     43                     44                     45
                      A                      A                      A
 Frequencies --   1072.5473              1076.3427              1080.6209
 Red. masses --      2.4627                 6.6147                 2.9110
 Frc consts  --      1.6692                 4.5150                 2.0028
 IR Inten    --    499.2973                30.3751                49.0600

                     46                     47                     48
                      A                      A                      A
 Frequencies --   1098.6822              1114.0164              1126.0941
 Red. masses --      4.0270                 4.0279                 2.8609
 Frc consts  --      2.8640                 2.9452                 2.1374
 IR Inten    --    343.1860               331.4293                33.0505

                     49                     50                     51
                      A                      A                      A
 Frequencies --   1133.3932              1135.6995              1160.7352
 Red. masses --      2.9670                 3.9215                 2.3593
 Frc consts  --      2.2456                 2.9801                 1.8729
 IR Inten    --     25.7724               372.4418               106.5647

                     52                     53                     54
                      A                      A                      A
 Frequencies --   1186.6969              1208.0647              1220.5452
 Red. masses --      3.6718                 1.5678                 2.3474
 Frc consts  --      3.0466                 1.3481                 2.0604
 IR Inten    --    491.7117               127.6595               354.5694

                     55                     56                     57
                      A                      A                      A
 Frequencies --   1228.2850              1253.8668              1261.0906
 Red. masses --      1.8642                 1.2139                 1.3660
 Frc consts  --      1.6570                 1.1244                 1.2799
 IR Inten    --     89.0409                64.2063                39.9760

                     58                     59                     60
                      A                      A                      A
 Frequencies --   1307.0276              1316.0112              1345.6948
 Red. masses --      1.2038                 1.2266                 1.2498
 Frc consts  --      1.2116                 1.2516                 1.3334
 IR Inten    --      2.8689                15.3198                59.2862

                     61                     62                     63
                      A                      A                      A
 Frequencies --   1365.6460              1406.4903              1410.1292
 Red. masses --      1.6220                 1.4828                 1.9307
 Frc consts  --      1.7823                 1.7282                 2.2620
 IR Inten    --      7.9856                 7.8767               162.8751

                     64                     65                     66
                      A                      A                      A
 Frequencies --   1468.2634              1478.6779              1503.9450
 Red. masses --      1.4964                 1.0965                 1.1701
 Frc consts  --      1.9006                 1.4125                 1.5594
 IR Inten    --     15.9029                13.1982                22.4638

                     67                     68                     69
                      A                      A                      A
 Frequencies --   1524.4392              1531.2963              1551.1167
 Red. masses --      3.3974                 1.0865                 3.2822
 Frc consts  --      4.6518                 1.5010                 4.6526
 IR Inten    --     79.9129                 2.5696               202.1766

                     70                     71                     72
                      A                      A                      A
 Frequencies --   1640.7662              3058.6279              3075.4923
 Red. masses --      6.7024                 1.0728                 1.0579
 Frc consts  --     10.6309                 5.9133                 5.8958
 IR Inten    --    317.6734                45.1960                70.7911

                     73                     74                     75
                      A                      A                      A
 Frequencies --   3093.6861              3113.4640              3121.9496
 Red. masses --      1.0625                 1.0851                 1.1064
 Frc consts  --      5.9916                 6.1976                 6.3533
 IR Inten    --      6.2346                 2.0124                62.5737

                     76                     77                     78
                      A                      A                      A
 Frequencies --   3144.5136              3207.1559              3263.1897
 Red. masses --      1.1049                 1.0921                 1.0953
 Frc consts  --      6.4370                 6.6183                 6.8720
 IR Inten    --     26.4499                 0.0724                 6.9802

                     79                     80                     81
                      A                      A                      A
 Frequencies --   3501.2374              3602.2420              3802.3305
 Red. masses --      1.0742                 1.0777                 1.0668
 Frc consts  --      7.7589                 8.2397                 9.0877
 IR Inten    --     54.4781               166.8632               134.3973

 - Thermochemistry -
 -------------------
 Temperature   298.150 Kelvin.  Pressure   1.00000 Atm.
 Atom     1 has atomic number  6 and mass  12.00000

 Molecular mass:   310.98301 amu.
 Principal axes and moments of inertia in atomic units:
                           1         2         3
     Eigenvalues --  2174.73243********************
           X            0.99999   0.00358  -0.00095
           Y           -0.00358   0.99999  -0.00124
           Z            0.00094   0.00125   1.00000
 This molecule is an asymmetric top.
 Rotational symmetry number  1.
 Warning -- assumption of classical behavior for rotation
           may cause significant error
 Rotational temperatures (Kelvin)      0.03983     0.00759     0.00687
 Rotational constants (GHZ):           0.82987     0.15823     0.14313
 Zero-point vibrational energy     547069.7 (Joules/Mol)
                                  130.75279 (Kcal/Mol)
 Warning -- explicit consideration of  31 degrees of freedom as
           vibrations may cause significant error
 Vibrational temperatures:     54.20    61.01    86.26   101.78   117.25
          (Kelvin)            162.48   192.07   228.97   274.75   286.66
                              332.67   342.39   357.43   388.35   418.49
                              449.76   467.37   480.26   558.66   589.97
                              609.80   641.21   671.97   699.44   710.62
                              737.15   744.33   812.52   815.83   846.66
                              890.14   966.34   985.43  1034.91  1065.51
                             1242.48  1253.64  1343.42  1380.22  1403.45
                             1444.51  1478.96  1543.16  1548.62  1554.77
                             1580.76  1602.82  1620.20  1630.70  1634.02
                             1670.04  1707.39  1738.14  1756.09  1767.23
                             1804.03  1814.43  1880.52  1893.45  1936.15
                             1964.86  2023.63  2028.86  2112.50  2127.49
                             2163.84  2193.33  2203.19  2231.71  2360.70
                             4400.68  4424.95  4451.12  4479.58  4491.79
                             4524.25  4614.38  4695.00  5037.50  5182.82
                             5470.71

 Zero-point correction=                           0.208368 (Hartree/Particle)
 Thermal correction to Energy=                    0.226158
 Thermal correction to Enthalpy=                  0.227102
 Thermal correction to Gibbs Free Energy=         0.161785
 Sum of electronic and zero-point Energies=          -1991.089690
 Sum of electronic and thermal Energies=             -1991.071900
 Sum of electronic and thermal Enthalpies=           -1991.070956
 Sum of electronic and thermal Free Energies=        -1991.136274

                     E (Thermal)             CV                S
                      KCal/Mol        Cal/Mol-Kelvin    Cal/Mol-Kelvin
 Total                  141.916             66.392            137.473
 Electronic               0.000              0.000              0.000
 Translational            0.889              2.981             43.100
 Rotational               0.889              2.981             34.102
 Vibrational            140.139             60.431             60.270
 Vibration     1          0.594              1.982              5.378
 Vibration     2          0.595              1.980              5.144
 Vibration     3          0.597              1.973              4.459
 Vibration     4          0.598              1.968              4.133
 Vibration     5          0.600              1.962              3.855
 Vibration     6          0.607              1.939              3.218
 Vibration     7          0.613              1.920              2.895
 Vibration     8          0.621              1.892              2.560
 Vibration     9          0.634              1.852              2.218
 Vibration    10          0.637              1.841              2.140
 Vibration    11          0.653              1.793              1.869
 Vibration    12          0.656              1.782              1.818
 Vibration    13          0.662              1.765              1.742
 Vibration    14          0.674              1.729              1.597
 Vibration    15          0.687              1.691              1.469
 Vibration    16          0.701              1.650              1.349
 Vibration    17          0.709              1.626              1.286
 Vibration    18          0.715              1.608              1.242
 Vibration    19          0.756              1.495              1.007
 Vibration    20          0.774              1.448              0.926
 Vibration    21          0.786              1.418              0.879
 Vibration    22          0.805              1.370              0.809
 Vibration    23          0.824              1.323              0.746
 Vibration    24          0.842              1.281              0.694
 Vibration    25          0.850              1.264              0.674
 Vibration    26          0.867              1.223              0.628
 Vibration    27          0.872              1.212              0.616
 Vibration    28          0.921              1.108              0.514
 Vibration    29          0.923              1.103              0.510
 Vibration    30          0.946              1.056              0.470
 Vibration    31          0.979              0.992              0.419

 Optimization completed.
    -- Stationary point found.
 Normal termination of Gaussian 16 at Fri May 27 15:18:19 2022.
