 Gaussian 16, Revision C.01,
 Gaussian 16:  ES64L-G16RevC.01  3-Jul-2019

 -----------------------------------------------------
 #m062X/gen 6D OPT Freq=noraman SCRF=(SMD,Solvent=h2o)
 -----------------------------------------------------

 -----------------
 A.23.smd.a1b2.smd
 -----------------
 Symbolic Z-matrix:
 Charge = -1 Multiplicity = 1

 SCF Done:  E(RM062X) =  -1243.68199715     A.U. after   14 cycles
 SCF Done:  E(RM062X) =  -1243.68556523     A.U. after   13 cycles
 SCF Done:  E(RM062X) =  -1243.68761615     A.U. after   13 cycles
 SCF Done:  E(RM062X) =  -1243.68912398     A.U. after   13 cycles
 SCF Done:  E(RM062X) =  -1243.69022355     A.U. after   12 cycles
 SCF Done:  E(RM062X) =  -1243.69085394     A.U. after   12 cycles
 SCF Done:  E(RM062X) =  -1243.69107968     A.U. after   12 cycles
 SCF Done:  E(RM062X) =  -1243.69112763     A.U. after   11 cycles
 SCF Done:  E(RM062X) =  -1243.69113343     A.U. after   10 cycles
 SCF Done:  E(RM062X) =  -1243.69113255     A.U. after   10 cycles
 SCF Done:  E(RM062X) =  -1243.69112537     A.U. after    9 cycles
 SCF Done:  E(RM062X) =  -1243.69112294     A.U. after   10 cycles
 SCF Done:  E(RM062X) =  -1243.69111751     A.U. after   11 cycles
 SCF Done:  E(RM062X) =  -1243.69111369     A.U. after   12 cycles
 SCF Done:  E(RM062X) =  -1243.69012899     A.U. after   12 cycles
 SCF Done:  E(RM062X) =  -1243.69061923     A.U. after   12 cycles
 SCF Done:  E(RM062X) =  -1243.69082360     A.U. after   12 cycles
 SCF Done:  E(RM062X) =  -1243.69084620     A.U. after   12 cycles
 SCF Done:  E(RM062X) =  -1243.69113323     A.U. after    5 cycles
 Optimization completed.
    -- Stationary point found.
 Normal termination of Gaussian 16 at Thu Jun 23 14:30:01 2022.

 ------------------------------------------------------------------
 #N Geom=AllCheck Guess=TCheck SCRF=Check GenChk RM062X/ChkBas Freq
 ------------------------------------------------------------------

 Structure from the checkpoint file:  "/jobfs/45185335.gadi-pbs/Gau-3563824.chk"
 -----------------
 A.23.smd.a1b2.smd
 -----------------
 Charge = -1 Multiplicity = 1

                         Standard orientation:
 ---------------------------------------------------------------------
 Center     Atomic      Atomic             Coordinates (Angstroms)
 Number     Number       Type             X           Y           Z
 ---------------------------------------------------------------------
      1          6           0        0.035562    0.224956   -0.058875
      2          6           0       -2.339200    0.145319    0.002462
      3          7           0       -3.665429   -0.149278   -0.046039
      4         16           0       -1.106094   -1.088741   -0.042074
      5         16           0        1.824483   -0.041387    0.013159
      6          8           0        2.069584   -0.085160    1.481352
      7          8           0        1.971840   -1.349854   -0.667889
      8          7           0        2.554601    1.075331   -0.769670
      9          1           0        2.589778    1.916413   -0.188632
     10          7           0       -0.500377    1.394472   -0.044508
     11          7           0       -1.868521    1.369165   -0.006881
     12          1           0       -3.962922   -1.032592    0.354933
     13          1           0       -4.272549    0.628861    0.196789
 ---------------------------------------------------------------------

 SCF Done:  E(RM062X) =  -1243.69113323     A.U. after    1 cycles

 The electronic state is 1-A.
 Alpha  occ. eigenvalues --  -90.14985 -89.97887 -19.62992 -19.62960 -14.81433
 Alpha  occ. eigenvalues --  -14.79540 -14.79258 -14.72936 -10.66971 -10.63202
 Alpha  occ. eigenvalues --   -8.45787  -8.32460  -6.38015  -6.37951  -6.37883
 Alpha  occ. eigenvalues --   -6.24445  -6.24245  -6.23956  -1.22165  -1.16124
 Alpha  occ. eigenvalues --   -1.10320  -1.05157  -0.97639  -0.92677  -0.89838
 Alpha  occ. eigenvalues --   -0.75109  -0.69416  -0.66091  -0.61232  -0.59280
 Alpha  occ. eigenvalues --   -0.56601  -0.54386  -0.53070  -0.52194  -0.50267
 Alpha  occ. eigenvalues --   -0.43736  -0.42899  -0.41003  -0.40116  -0.38476
 Alpha  occ. eigenvalues --   -0.36280  -0.35605  -0.35170  -0.33845  -0.31673
 Alpha  occ. eigenvalues --   -0.29360
 Alpha virt. eigenvalues --   -0.00341   0.01163   0.01870   0.03754   0.04301
 Alpha virt. eigenvalues --    0.04572   0.05445   0.06275   0.06600   0.07739
 Alpha virt. eigenvalues --    0.07881   0.08831   0.09633   0.09913   0.10718

 Mulliken charges:
               1
     1  C   -0.734231
     2  C   -0.153378
     3  N   -0.760672
     4  S    0.629005
     5  S    1.519246
     6  O   -0.702967
     7  O   -0.755929
     8  N   -0.947443
     9  H    0.412748
    10  N   -0.122910
    11  N   -0.310892
    12  H    0.460030
    13  H    0.467393
 Sum of Mulliken charges =  -1.00000

 Dipole moment (field-independent basis, Debye):
    X=            -14.5155    Y=             -1.9010    Z=              1.9503  Tot=             14.7688
 Quadrupole moment (field-independent basis, Debye-Ang):
   XX=            -82.3210   YY=            -83.5513   ZZ=            -86.6681
   XY=             12.2664   XZ=             -2.8897   YZ=              0.3821

  Exact polarizability:     178.101       4.963     140.628      -2.760      -1.995     100.339
 Approx polarizability:     145.110       3.299     142.643      -2.336      -1.222      94.977

                      1                      2                      3
                      A                      A                      A
 Frequencies --     25.0842                95.2761               129.1482
 Red. masses --     11.2411                 7.7354                 7.2158
 Frc consts  --      0.0042                 0.0414                 0.0709
 IR Inten    --     11.3761                 0.7799                25.7285

                      4                      5                      6
                      A                      A                      A
 Frequencies --    227.2900               263.1002               296.6106
 Red. masses --      9.3480                 4.3230                 2.6433
 Frc consts  --      0.2845                 0.1763                 0.1370
 IR Inten    --     15.1892                 8.4738                21.1107

                      7                      8                      9
                      A                      A                      A
 Frequencies --    306.0770               381.2395               399.0262
 Red. masses --      1.4526                 2.9583                 5.7513
 Frc consts  --      0.0802                 0.2533                 0.5395
 IR Inten    --     53.4349                41.4052                 6.0046

                     10                     11                     12
                      A                      A                      A
 Frequencies --    442.7311               485.6082               502.5924
 Red. masses --      2.2994                 2.3826                 2.3133
 Frc consts  --      0.2655                 0.3310                 0.3443
 IR Inten    --    301.2561                14.7008               420.1374

                     13                     14                     15
                      A                      A                      A
 Frequencies --    509.8882               577.7127               615.5491
 Red. masses --      5.4547                 7.9882                10.7482
 Frc consts  --      0.8355                 1.5708                 2.3994
 IR Inten    --    233.9634               189.9774                 6.7960

                     16                     17                     18
                      A                      A                      A
 Frequencies --    641.4651               652.9978               701.2663
 Red. masses --     12.2695                 9.4341                 6.5355
 Frc consts  --      2.9746                 2.3701                 1.8936
 IR Inten    --     65.1511               124.4288                 7.1621

                     19                     20                     21
                      A                      A                      A
 Frequencies --    794.7114               969.4643              1075.0151
 Red. masses --     10.7878                14.2965                 2.1593
 Frc consts  --      4.0142                 7.9167                 1.4702
 IR Inten    --      1.1419               324.3072               402.8501

                     22                     23                     24
                      A                      A                      A
 Frequencies --   1088.5314              1106.3421              1138.5056
 Red. masses --      2.2404                 9.1393                 4.3588
 Frc consts  --      1.5641                 6.5909                 3.3288
 IR Inten    --    141.9790               116.6833               401.1090

                     25                     26                     27
                      A                      A                      A
 Frequencies --   1194.3036              1200.7020              1368.1206
 Red. masses --      4.6977                 3.9976                 3.6919
 Frc consts  --      3.9479                 3.3956                 4.0714
 IR Inten    --    122.1424               351.2378               194.9350

                     28                     29                     30
                      A                      A                      A
 Frequencies --   1557.3013              1575.3757              1641.6103
 Red. masses --      4.0607                11.6724                 1.3364
 Frc consts  --      5.8023                17.0678                 2.1220
 IR Inten    --    348.7075                57.2662               402.3215

                     31                     32                     33
                      A                      A                      A
 Frequencies --   3512.2239              3554.3977              3659.9046
 Red. masses --      1.0739                 1.0488                 1.1015
 Frc consts  --      7.8055                 7.8065                 8.6932
 IR Inten    --     65.1990               219.2352               155.1166

 - Thermochemistry -
 -------------------
 Temperature   298.150 Kelvin.  Pressure   1.00000 Atm.
 Atom     1 has atomic number  6 and mass  12.00000

 Molecular mass:   178.96974 amu.
 Principal axes and moments of inertia in atomic units:
                           1         2         3
     Eigenvalues --   692.906562734.029683063.56333
           X            0.99993   0.01097  -0.00415
           Y           -0.01100   0.99992  -0.00666
           Z            0.00407   0.00670   0.99997
 This molecule is an asymmetric top.
 Rotational symmetry number  1.
 Warning -- assumption of classical behavior for rotation
           may cause significant error
 Rotational temperatures (Kelvin)      0.12500     0.03168     0.02827
 Rotational constants (GHZ):           2.60460     0.66010     0.58910
 Zero-point vibrational energy     195524.7 (Joules/Mol)
                                   46.73152 (Kcal/Mol)
 Warning -- explicit consideration of  15 degrees of freedom as
           vibrations may cause significant error
 Vibrational temperatures:     36.09   137.08   185.82   327.02   378.54
          (Kelvin)            426.76   440.38   548.52   574.11   636.99
                              698.68   723.12   733.62   831.20   885.64
                              922.93   939.52  1008.97  1143.41  1394.84
                             1546.71  1566.15  1591.78  1638.06  1718.34
                             1727.54  1968.42  2240.61  2266.61  2361.91
                             5053.31  5113.99  5265.79

 Zero-point correction=                           0.074471 (Hartree/Particle)
 Thermal correction to Energy=                    0.084004
 Thermal correction to Enthalpy=                  0.084949
 Thermal correction to Gibbs Free Energy=         0.038334
 Sum of electronic and zero-point Energies=          -1243.616662
 Sum of electronic and thermal Energies=             -1243.607129
 Sum of electronic and thermal Enthalpies=           -1243.606185
 Sum of electronic and thermal Free Energies=        -1243.652799

                     E (Thermal)             CV                S
                      KCal/Mol        Cal/Mol-Kelvin    Cal/Mol-Kelvin
 Total                   52.714             34.473             98.108
 Electronic               0.000              0.000              0.000
 Translational            0.889              2.981             41.453
 Rotational               0.889              2.981             30.141
 Vibrational             50.936             28.511             26.514
 Vibration     1          0.593              1.985              6.185
 Vibration     2          0.603              1.953              3.549
 Vibration     3          0.612              1.924              2.959
 Vibration     4          0.651              1.799              1.900
 Vibration     5          0.670              1.740              1.641
 Vibration     6          0.690              1.680              1.436
 Vibration     7          0.696              1.662              1.383
 Vibration     8          0.751              1.510              1.034
 Vibration     9          0.765              1.472              0.966
 Vibration    10          0.802              1.377              0.818
 Vibration    11          0.842              1.282              0.695
 Vibration    12          0.858              1.244              0.652
 Vibration    13          0.865              1.228              0.634
 Vibration    14          0.934              1.079              0.490
 Vibration    15          0.975              0.999              0.424

                           ! Non-Optimized Parameters !
 Normal termination of Gaussian 16 at Thu Jun 23 14:31:57 2022.
