 Gaussian 16, Revision C.01,
 Gaussian 16:  ES64L-G16RevC.01  3-Jul-2019

 -----------------------------------------------------
 #m062X/gen 6D OPT Freq=noraman SCRF=(SMD,Solvent=h2o)
 -----------------------------------------------------

 -----------------
 A.24.smd.a1b2.smd
 -----------------
 Symbolic Z-matrix:
 Charge = -1 Multiplicity = 1

 SCF Done:  E(RM062X) =  -1325.91272652     A.U. after   15 cycles
 SCF Done:  E(RM062X) =  -1325.91705746     A.U. after   13 cycles
 SCF Done:  E(RM062X) =  -1325.91789543     A.U. after   12 cycles
 SCF Done:  E(RM062X) =  -1325.91897320     A.U. after   14 cycles
 SCF Done:  E(RM062X) =  -1325.91935767     A.U. after   15 cycles
 SCF Done:  E(RM062X) =  -1325.91943497     A.U. after   12 cycles
 SCF Done:  E(RM062X) =  -1325.91946121     A.U. after   12 cycles
 SCF Done:  E(RM062X) =  -1325.91946776     A.U. after   11 cycles
 SCF Done:  E(RM062X) =  -1325.91946851     A.U. after   10 cycles
 SCF Done:  E(RM062X) =  -1325.91946849     A.U. after   10 cycles
 SCF Done:  E(RM062X) =  -1325.91948724     A.U. after    7 cycles
 SCF Done:  E(RM062X) =  -1325.91939993     A.U. after   15 cycles
 SCF Done:  E(RM062X) =  -1325.91931355     A.U. after   13 cycles
 SCF Done:  E(RM062X) =  -1325.91948239     A.U. after   13 cycles
 SCF Done:  E(RM062X) =  -1325.91949136     A.U. after   11 cycles
 SCF Done:  E(RM062X) =  -1325.91949429     A.U. after   11 cycles
 SCF Done:  E(RM062X) =  -1325.91949449     A.U. after    9 cycles
 SCF Done:  E(RM062X) =  -1325.91949454     A.U. after    9 cycles
 SCF Done:  E(RM062X) =  -1325.91949446     A.U. after   10 cycles
 Optimization completed.
    -- Stationary point found.
 Normal termination of Gaussian 16 at Thu Jun 23 14:58:37 2022.

 ------------------------------------------------------------------
 #N Geom=AllCheck Guess=TCheck SCRF=Check GenChk RM062X/ChkBas Freq
 ------------------------------------------------------------------

 Structure from the checkpoint file:  "/jobfs/45187852.gadi-pbs/Gau-3877773.chk"
 -----------------
 A.24.smd.a1b2.smd
 -----------------
 Charge = -1 Multiplicity = 1

                         Standard orientation:
 ---------------------------------------------------------------------
 Center     Atomic      Atomic             Coordinates (Angstroms)
 Number     Number       Type             X           Y           Z
 ---------------------------------------------------------------------
      1          6           0        0.698139   -0.055927    0.041492
      2          6           0       -1.615182    0.675507   -0.010149
      3         16           0       -0.082318    1.506414    0.004146
      4         16           0        2.508282   -0.168274    0.005938
      5          8           0        2.913903    1.254480    0.107606
      6          8           0        2.805687   -0.989104    1.209875
      7          7           0        2.961326   -0.760080   -1.355103
      8          1           0        2.806286   -1.771389   -1.336878
      9          7           0       -0.058888   -1.096049    0.042545
     10          6           0       -1.396493   -0.716444    0.016061
     11          6           0       -2.906891    1.210671   -0.036579
     12          6           0       -3.975321    0.324004   -0.036092
     13          6           0       -3.767293   -1.067750   -0.008501
     14          6           0       -2.486565   -1.597035    0.017949
     15          1           0       -3.070699    2.283540   -0.057067
     16          1           0       -4.988715    0.713112   -0.056844
     17          1           0       -4.623860   -1.734792   -0.007559
     18          1           0       -2.314585   -2.668972    0.039976
 ---------------------------------------------------------------------

 SCF Done:  E(RM062X) =  -1325.91949446     A.U. after    1 cycles

 The electronic state is 1-A.
 Alpha  occ. eigenvalues --  -90.14746 -89.97119 -19.62989 -19.62946 -14.78812
 Alpha  occ. eigenvalues --  -14.72870 -10.63998 -10.59913 -10.59822 -10.56871
 Alpha  occ. eigenvalues --  -10.56314 -10.56158 -10.55963  -8.45583  -8.31549
 Alpha  occ. eigenvalues --   -6.37814  -6.37745  -6.37668  -6.23542  -6.23330
 Alpha  occ. eigenvalues --   -6.23065  -1.22080  -1.10398  -1.09426  -0.97421
 Alpha  occ. eigenvalues --   -0.96318  -0.90884  -0.85155  -0.83435  -0.74951
 Alpha  occ. eigenvalues --   -0.69050  -0.68670  -0.64480  -0.59062  -0.57055
 Alpha  occ. eigenvalues --   -0.56660  -0.55987  -0.52859  -0.51178  -0.51027
 Alpha  occ. eigenvalues --   -0.50571  -0.46635  -0.43386  -0.43158  -0.42384
 Alpha  occ. eigenvalues --   -0.40903  -0.40201  -0.38572  -0.37806  -0.37177
 Alpha  occ. eigenvalues --   -0.35884  -0.33564  -0.31899  -0.29407  -0.29111
 Alpha virt. eigenvalues --   -0.02019   0.01024   0.01396   0.02441   0.03445
 Alpha virt. eigenvalues --    0.04298   0.04479   0.04611   0.04885   0.05013
 Alpha virt. eigenvalues --    0.06359   0.07079   0.07247   0.07732   0.08347

 Mulliken charges:
               1
     1  C   -0.738235
     2  C    0.543843
     3  S    0.451114
     4  S    1.769635
     5  O   -0.750373
     6  O   -0.685469
     7  N   -0.922989
     8  H    0.412316
     9  N   -0.169004
    10  C   -0.258306
    11  C   -0.297213
    12  C   -0.170981
    13  C   -0.312341
    14  C   -0.913172
    15  H    0.271154
    16  H    0.253100
    17  H    0.252981
    18  H    0.263938
 Sum of Mulliken charges =  -1.00000

 Dipole moment (field-independent basis, Debye):
    X=            -17.5754    Y=              0.4783    Z=             -0.5239  Tot=             17.5897
 Quadrupole moment (field-independent basis, Debye-Ang):
   XX=           -126.0164   YY=            -91.5900   ZZ=           -104.8633
   XY=             -3.3317   XZ=             -0.1444   YZ=              3.3973

  Exact polarizability:     279.639       3.435     210.683      -4.653       0.255     132.097
 Approx polarizability:     224.790       4.937     203.050      -2.697      -0.501     122.781

                      1                      2                      3
                      A                      A                      A
 Frequencies --     33.5474                79.1581               127.2977
 Red. masses --      7.7854                 7.9555                 8.1494
 Frc consts  --      0.0052                 0.0294                 0.0778
 IR Inten    --      2.1926                 1.0889                 9.2528

                      4                      5                      6
                      A                      A                      A
 Frequencies --    192.7878               206.9062               254.2590
 Red. masses --      5.9348                 6.1285                 9.3211
 Frc consts  --      0.1300                 0.1546                 0.3550
 IR Inten    --      0.4663                 5.5836                 4.4429

                      7                      8                      9
                      A                      A                      A
 Frequencies --    280.1003               342.7083               383.7437
 Red. masses --      4.7263                 7.4933                 4.4978
 Frc consts  --      0.2185                 0.5185                 0.3902
 IR Inten    --     38.8934                 0.7984                31.9653

                     10                     11                     12
                      A                      A                      A
 Frequencies --    441.1047               448.8988               488.7008
 Red. masses --      3.2489                 2.7132                 8.1188
 Frc consts  --      0.3724                 0.3221                 1.1424
 IR Inten    --     34.0336               113.1241                31.7609

                     13                     14                     15
                      A                      A                      A
 Frequencies --    490.6894               515.6084               552.0621
 Red. masses --      2.5036                 8.4451                 6.7510
 Frc consts  --      0.3552                 1.3228                 1.2123
 IR Inten    --    136.9302                 1.1452                84.8067

                     16                     17                     18
                      A                      A                      A
 Frequencies --    563.2044               618.5808               634.6355
 Red. masses --      6.5820                10.3829                 8.2255
 Frc consts  --      1.2301                 2.3408                 1.9519
 IR Inten    --     89.7448               180.9618                43.6365

                     19                     20                     21
                      A                      A                      A
 Frequencies --    704.7948               725.2618               740.4072
 Red. masses --      9.6669                 7.6864                 3.3054
 Frc consts  --      2.8292                 2.3821                 1.0676
 IR Inten    --     41.4852                 0.5432                17.9541

                     22                     23                     24
                      A                      A                      A
 Frequencies --    781.8612               870.8712               886.7200
 Red. masses --      1.4665                 6.7531                 1.3551
 Frc consts  --      0.5282                 3.0176                 0.6278
 IR Inten    --    129.2223                22.3015                 1.2049

                     25                     26                     27
                      A                      A                      A
 Frequencies --    963.4992               985.5295              1025.4486
 Red. masses --     13.6660                 1.3574                 1.3005
 Frc consts  --      7.4747                 0.7768                 0.8057
 IR Inten    --    362.0540                 2.4660                 0.0266

                     28                     29                     30
                      A                      A                      A
 Frequencies --   1047.0796              1058.5328              1080.1110
 Red. masses --      4.3518                 2.4678                 2.5641
 Frc consts  --      2.8111                 1.6292                 1.7625
 IR Inten    --     48.5875               106.1801               453.0731

                     31                     32                     33
                      A                      A                      A
 Frequencies --   1117.3788              1137.0763              1153.5380
 Red. masses --      5.1027                 3.1784                 1.3303
 Frc consts  --      3.7536                 2.4212                 1.0430
 IR Inten    --    139.4338               330.2689                 6.8289

                     34                     35                     36
                      A                      A                      A
 Frequencies --   1182.5156              1202.8465              1277.9328
 Red. masses --      1.2465                 4.4580                 2.4290
 Frc consts  --      1.0270                 3.8002                 2.3372
 IR Inten    --      3.3398               501.6557                21.6773

                     37                     38                     39
                      A                      A                      A
 Frequencies --   1316.5611              1359.7821              1484.8738
 Red. masses --      1.9691                 8.3009                 2.4577
 Frc consts  --      2.0110                 9.0430                 3.1927
 IR Inten    --     16.7159                26.7203                44.4878

                     40                     41                     42
                      A                      A                      A
 Frequencies --   1507.8047              1591.8036              1640.4111
 Red. masses --      2.8225                10.4899                 6.7936
 Frc consts  --      3.7807                15.6602                10.7709
 IR Inten    --     17.4273               106.5557                13.8160

                     43                     44                     45
                      A                      A                      A
 Frequencies --   1679.5029              3232.4621              3239.1474
 Red. masses --      6.8198                 1.0875                 1.0906
 Frc consts  --     11.3340                 6.6950                 6.7418
 IR Inten    --      5.5409                 0.8445                 1.9499

                     46                     47                     48
                      A                      A                      A
 Frequencies --   3246.3681              3252.6689              3505.7591
 Red. masses --      1.0956                 1.0986                 1.0740
 Frc consts  --      6.8032                 6.8483                 7.7773
 IR Inten    --      7.3329                11.8019                57.7678

 - Thermochemistry -
 -------------------
 Temperature   298.150 Kelvin.  Pressure   1.00000 Atm.
 Atom     1 has atomic number  6 and mass  12.00000

 Molecular mass:   212.97925 amu.
 Principal axes and moments of inertia in atomic units:
                           1         2         3
     Eigenvalues --  1015.209734649.551125299.31086
           X            1.00000  -0.00110  -0.00269
           Y            0.00113   0.99993   0.01156
           Z            0.00268  -0.01156   0.99993
 This molecule is an asymmetric top.
 Rotational symmetry number  1.
 Warning -- assumption of classical behavior for rotation
           may cause significant error
 Rotational temperatures (Kelvin)      0.08532     0.01863     0.01634
 Rotational constants (GHZ):           1.77770     0.38815     0.34056
 Zero-point vibrational energy     308950.8 (Joules/Mol)
                                   73.84102 (Kcal/Mol)
 Warning -- explicit consideration of  17 degrees of freedom as
           vibrations may cause significant error
 Vibrational temperatures:     48.27   113.89   183.15   277.38   297.69
          (Kelvin)            365.82   403.00   493.08   552.12   634.65
                              645.87   703.13   705.99   741.85   794.29
                              810.33   890.00   913.10  1014.04  1043.49
                             1065.28  1124.92  1252.99  1275.79  1386.26
                             1417.96  1475.39  1506.51  1522.99  1554.04
                             1607.66  1636.00  1659.68  1701.38  1730.63
                             1838.66  1894.24  1956.42  2136.40  2169.39
                             2290.25  2360.19  2416.43  4650.79  4660.41
                             4670.80  4679.87  5044.01

 Zero-point correction=                           0.117673 (Hartree/Particle)
 Thermal correction to Energy=                    0.128315
 Thermal correction to Enthalpy=                  0.129259
 Thermal correction to Gibbs Free Energy=         0.080071
 Sum of electronic and zero-point Energies=          -1325.801821
 Sum of electronic and thermal Energies=             -1325.791179
 Sum of electronic and thermal Enthalpies=           -1325.790235
 Sum of electronic and thermal Free Energies=        -1325.839423

                     E (Thermal)             CV                S
                      KCal/Mol        Cal/Mol-Kelvin    Cal/Mol-Kelvin
 Total                   80.519             40.863            103.525
 Electronic               0.000              0.000              0.000
 Translational            0.889              2.981             41.972
 Rotational               0.889              2.981             31.592
 Vibrational             78.741             34.902             29.961
 Vibration     1          0.594              1.983              5.608
 Vibration     2          0.600              1.963              3.912
 Vibration     3          0.611              1.926              2.986
 Vibration     4          0.635              1.850              2.201
 Vibration     5          0.641              1.830              2.071
 Vibration     6          0.665              1.756              1.701
 Vibration     7          0.680              1.710              1.533
 Vibration     8          0.722              1.590              1.200
 Vibration     9          0.753              1.505              1.024
 Vibration    10          0.801              1.381              0.823
 Vibration    11          0.808              1.363              0.799
 Vibration    12          0.845              1.275              0.687
 Vibration    13          0.846              1.271              0.682
 Vibration    14          0.871              1.215              0.620
 Vibration    15          0.907              1.135              0.540
 Vibration    16          0.919              1.111              0.517
 Vibration    17          0.978              0.993              0.419

                           ! Non-Optimized Parameters !
 Normal termination of Gaussian 16 at Thu Jun 23 15:02:13 2022.
