 Gaussian 16, Revision C.01,
 Gaussian 16:  ES64L-G16RevC.01  3-Jul-2019

 -----------------------------------------------------
 #m062X/gen 6D OPT Freq=noraman SCRF=(SMD,Solvent=h2o)
 -----------------------------------------------------

 ----------------
 A.25.smd.a2d3.smd
 ----------------
 Symbolic Z-matrix:
 Charge = -1 Multiplicity = 1

 SCF Done:  E(RM062X) =  -1396.26770587     A.U. after   15 cycles
 SCF Done:  E(RM062X) =  -1396.28015486     A.U. after   14 cycles
 SCF Done:  E(RM062X) =  -1396.29122001     A.U. after   15 cycles
 SCF Done:  E(RM062X) =  -1396.29682871     A.U. after   14 cycles
 SCF Done:  E(RM062X) =  -1396.29905960     A.U. after   14 cycles
 SCF Done:  E(RM062X) =  -1396.29935719     A.U. after   12 cycles
 SCF Done:  E(RM062X) =  -1396.29964917     A.U. after   12 cycles
 SCF Done:  E(RM062X) =  -1396.29967381     A.U. after   12 cycles
 SCF Done:  E(RM062X) =  -1396.29968469     A.U. after   11 cycles
 SCF Done:  E(RM062X) =  -1396.29968830     A.U. after   10 cycles
 SCF Done:  E(RM062X) =  -1396.29988424     A.U. after   10 cycles
 SCF Done:  E(RM062X) =  -1396.29988481     A.U. after   10 cycles
 SCF Done:  E(RM062X) =  -1396.29988516     A.U. after    9 cycles
 SCF Done:  E(RM062X) =  -1396.29988513     A.U. after    8 cycles
 SCF Done:  E(RM062X) =  -1396.29988413     A.U. after   11 cycles
 SCF Done:  E(RM062X) =  -1396.29988403     A.U. after   10 cycles
 SCF Done:  E(RM062X) =  -1396.29988540     A.U. after   10 cycles
 SCF Done:  E(RM062X) =  -1396.29988554     A.U. after    9 cycles
 SCF Done:  E(RM062X) =  -1396.29988543     A.U. after    8 cycles
 Optimization completed.
    -- Stationary point found.
 Normal termination of Gaussian 16 at Fri May 20 22:26:12 2022.

 ------------------------------------------------------------------
 #N Geom=AllCheck Guess=TCheck SCRF=Check GenChk RM062X/ChkBas Freq
 ------------------------------------------------------------------

 Structure from the checkpoint file:  "/jobfs/40775329.gadi-pbs/Gau-3446027.chk"
 ----------------
 A.25.smd.a2d3.smd
 ----------------
 Charge = -1 Multiplicity = 1

                         Standard orientation:
 ---------------------------------------------------------------------
 Center     Atomic      Atomic             Coordinates (Angstroms)
 Number     Number       Type             X           Y           Z
 ---------------------------------------------------------------------
      1          6           0       -1.028922    0.371467   -0.028665
      2          6           0        1.292774    0.748035    0.002434
      3          7           0        2.668662    0.768733    0.017540
      4         16           0        0.334327   -0.698306   -0.014352
      5         16           0       -2.734389   -0.240692   -0.006543
      6          8           0       -3.296807    0.325911   -1.260123
      7          8           0       -2.519011   -1.707390   -0.024819
      8          7           0       -3.427099    0.189309    1.310630
      9          1           0       -3.703438    1.171085    1.228323
     10          6           0        3.466870   -0.346782    0.021286
     11          8           0        2.970303   -1.471062    0.017506
     12          6           0        4.944381   -0.100186    0.014217
     13          7           0       -0.738219    1.629105   -0.017721
     14          7           0        0.608024    1.861108   -0.002574
     15          1           0        3.099502    1.690904    0.021718
     16          1           0        5.341687   -0.437195   -0.948171
     17          1           0        5.401523   -0.704548    0.801303
     18          1           0        5.195646    0.951066    0.159863
 ---------------------------------------------------------------------

 SCF Done:  E(RM062X) =  -1396.29988543     A.U. after    1 cycles

 The electronic state is 1-A.
 Alpha  occ. eigenvalues --  -90.15114 -89.99014 -19.64964 -19.63133 -19.63105
 Alpha  occ. eigenvalues --  -14.83040 -14.81670 -14.80836 -14.72989 -10.68890
 Alpha  occ. eigenvalues --  -10.67652 -10.63336 -10.55053  -8.45910  -8.33391
 Alpha  occ. eigenvalues --   -6.38139  -6.38082  -6.37998  -6.25355  -6.25146
 Alpha  occ. eigenvalues --   -6.24896  -1.22341  -1.19910  -1.16797  -1.10586
 Alpha  occ. eigenvalues --   -1.07679  -0.97673  -0.93932  -0.91999  -0.84706
 Alpha  occ. eigenvalues --   -0.76296  -0.72361  -0.68436  -0.66102  -0.62006
 Alpha  occ. eigenvalues --   -0.58032  -0.57080  -0.56064  -0.55152  -0.53165
 Alpha  occ. eigenvalues --   -0.52406  -0.51199  -0.50673  -0.46907  -0.45700
 Alpha  occ. eigenvalues --   -0.43291  -0.41818  -0.41483  -0.40169  -0.38454
 Alpha  occ. eigenvalues --   -0.37349  -0.36604  -0.36012  -0.35376  -0.33881
 Alpha  occ. eigenvalues --   -0.32637  -0.29887
 Alpha virt. eigenvalues --   -0.01771   0.01113   0.02483   0.02664   0.04072
 Alpha virt. eigenvalues --    0.04231   0.04463   0.04801   0.06037   0.06233
 Alpha virt. eigenvalues --    0.06439   0.07130   0.07560   0.08117   0.08803

 Mulliken charges:
               1
     1  C   -0.710706
     2  C   -0.418742
     3  N   -0.525987
     4  S    0.921941
     5  S    1.547234
     6  O   -0.683154
     7  O   -0.773205
     8  N   -0.940005
     9  H    0.413110
    10  C    0.771920
    11  O   -0.606078
    12  C   -1.043976
    13  N   -0.058418
    14  N   -0.246695
    15  H    0.533253
    16  H    0.283317
    17  H    0.275268
    18  H    0.260920
 Sum of Mulliken charges =  -1.00000

 Dipole moment (field-independent basis, Debye):
    X=             20.0311    Y=              4.6106    Z=              0.3599  Tot=             20.5580
 Quadrupole moment (field-independent basis, Debye-Ang):
   XX=           -112.4119   YY=           -110.1293   ZZ=           -101.1940
   XY=              3.2213   XZ=             -1.5018   YZ=              3.2069

  Exact polarizability:     227.692      -8.506     178.080      -5.150      -0.061     124.330
 Approx polarizability:     179.094      -7.308     177.136      -3.304      -0.403     116.525

                      1                      2                      3
                      A                      A                      A
 Frequencies --     32.1547                38.4900                67.8344
 Red. masses --      6.3240                 1.2681                 3.3517
 Frc consts  --      0.0039                 0.0011                 0.0091
 IR Inten    --      0.9266                 0.8170                 1.7974

                      4                      5                      6
                      A                      A                      A
 Frequencies --     90.2347                95.7277               136.1463
 Red. masses --     13.5741                 7.2938                 5.8800
 Frc consts  --      0.0651                 0.0394                 0.0642
 IR Inten    --     29.6435                 0.2849                 3.2341

                      7                      8                      9
                      A                      A                      A
 Frequencies --    175.6046               246.0434               258.3835
 Red. masses --      7.7129                 5.6069                 9.1683
 Frc consts  --      0.1401                 0.2000                 0.3606
 IR Inten    --     60.9709                 1.0827                 3.9483

                     10                     11                     12
                      A                      A                      A
 Frequencies --    301.9122               362.7790               395.5007
 Red. masses --      4.9326                 5.1921                 6.0936
 Frc consts  --      0.2649                 0.4026                 0.5616
 IR Inten    --     18.1533                 8.4641                40.4294

                     13                     14                     15
                      A                      A                      A
 Frequencies --    399.1579               449.9505               490.0949
 Red. masses --      6.3777                 2.5447                 2.6838
 Frc consts  --      0.5987                 0.3035                 0.3798
 IR Inten    --     20.5885               112.5803               141.6847

                     16                     17                     18
                      A                      A                      A
 Frequencies --    505.4787               557.1341               573.7092
 Red. masses --      9.2358                 1.5986                 5.2672
 Frc consts  --      1.3904                 0.2923                 1.0214
 IR Inten    --     17.9654               165.5372                88.2698

                     19                     20                     21
                      A                      A                      A
 Frequencies --    611.1559               621.1361               630.4883
 Red. masses --      7.4543                 3.2148                 3.9989
 Frc consts  --      1.6404                 0.7308                 0.9366
 IR Inten    --    315.4207                27.0153                46.7404

                     22                     23                     24
                      A                      A                      A
 Frequencies --    657.7224               691.7969               728.0985
 Red. masses --      8.4669                11.7463                 7.7630
 Frc consts  --      2.1580                 3.3121                 2.4247
 IR Inten    --     10.9942                26.3360                10.3343

                     25                     26                     27
                      A                      A                      A
 Frequencies --    823.1127               969.1933              1003.7723
 Red. masses --      9.8994                14.1056                 4.4145
 Frc consts  --      3.9516                 7.8066                 2.6206
 IR Inten    --      1.5580               351.9387                16.6499

                     28                     29                     30
                      A                      A                      A
 Frequencies --   1048.2045              1065.8028              1072.6020
 Red. masses --      1.6486                 1.7281                 2.2010
 Frc consts  --      1.0672                 1.1566                 1.4919
 IR Inten    --     38.0551                22.4342               502.1740

                     31                     32                     33
                      A                      A                      A
 Frequencies --   1121.6186              1139.2979              1176.5114
 Red. masses --     12.3863                 3.5558                10.4550
 Frc consts  --      9.1809                 2.7193                 8.5264
 IR Inten    --    117.5370               348.1940                31.1947

                     34                     35                     36
                      A                      A                      A
 Frequencies --   1204.0836              1270.8060              1353.4244
 Red. masses --      4.6255                 2.2397                 5.7455
 Frc consts  --      3.9511                 2.1311                 6.2008
 IR Inten    --    483.9767               191.2583               337.0868

                     37                     38                     39
                      A                      A                      A
 Frequencies --   1411.8665              1468.3251              1481.9531
 Red. masses --      1.2123                 1.1567                 1.3795
 Frc consts  --      1.4238                 1.4693                 1.7849
 IR Inten    --     84.4765                52.6482                38.9140

                     40                     41                     42
                      A                      A                      A
 Frequencies --   1504.3839              1557.7626              1575.0128
 Red. masses --      1.7056                11.8449                 4.1804
 Frc consts  --      2.2743                16.9349                 6.1099
 IR Inten    --     61.8050                31.6658              1121.5178

                     43                     44                     45
                      A                      A                      A
 Frequencies --   1744.2250              3105.3296              3182.2278
 Red. masses --      8.3811                 1.0369                 1.1011
 Frc consts  --     15.0230                 5.8909                 6.5696
 IR Inten    --    481.2599                 0.0501                 0.8211

                     46                     47                     48
                      A                      A                      A
 Frequencies --   3210.6349              3505.1762              3588.2793
 Red. masses --      1.1058                 1.0739                 1.0795
 Frc consts  --      6.7158                 7.7735                 8.1894
 IR Inten    --      6.4078                62.6495               255.6130

 - Thermochemistry -
 -------------------
 Temperature   298.150 Kelvin.  Pressure   1.00000 Atm.
 Atom     1 has atomic number  6 and mass  12.00000

 Molecular mass:   220.98031 amu.
 Principal axes and moments of inertia in atomic units:
                           1         2         3
     Eigenvalues --   939.836345595.341426159.72659
           X            1.00000  -0.00006  -0.00290
           Y            0.00008   0.99996   0.00935
           Z            0.00290  -0.00935   0.99995
 This molecule is an asymmetric top.
 Rotational symmetry number  1.
 Warning -- assumption of classical behavior for rotation
           may cause significant error
 Rotational temperatures (Kelvin)      0.09216     0.01548     0.01406
 Rotational constants (GHZ):           1.92027     0.32254     0.29299
 Zero-point vibrational energy     297274.1 (Joules/Mol)
                                   71.05020 (Kcal/Mol)
 Warning -- explicit consideration of  19 degrees of freedom as
           vibrations may cause significant error
 Vibrational temperatures:     46.26    55.38    97.60   129.83   137.73
          (Kelvin)            195.88   252.66   354.00   371.76   434.38
                              521.96   569.04   574.30   647.38   705.14
                              727.27   801.59   825.44   879.32   893.68
                              907.13   946.32   995.34  1047.57  1184.28
                             1394.45  1444.20  1508.13  1533.45  1543.24
                             1613.76  1639.20  1692.74  1732.41  1828.41
                             1947.28  2031.36  2112.59  2132.20  2164.47
                             2241.27  2266.09  2509.55  4467.88  4578.52
                             4619.39  5043.17  5162.73

 Zero-point correction=                           0.113226 (Hartree/Particle)
 Thermal correction to Energy=                    0.125949
 Thermal correction to Enthalpy=                  0.126893
 Thermal correction to Gibbs Free Energy=         0.071886
 Sum of electronic and zero-point Energies=          -1396.186660
 Sum of electronic and thermal Energies=             -1396.173937
 Sum of electronic and thermal Enthalpies=           -1396.172993
 Sum of electronic and thermal Free Energies=        -1396.227999

                     E (Thermal)             CV                S
                      KCal/Mol        Cal/Mol-Kelvin    Cal/Mol-Kelvin
 Total                   79.034             44.912            115.771
 Electronic               0.000              0.000              0.000
 Translational            0.889              2.981             42.081
 Rotational               0.889              2.981             31.849
 Vibrational             77.257             38.951             41.840
 Vibration     1          0.594              1.983              5.692
 Vibration     2          0.594              1.982              5.335
 Vibration     3          0.598              1.970              4.215
 Vibration     4          0.602              1.956              3.655
 Vibration     5          0.603              1.952              3.539
 Vibration     6          0.614              1.917              2.857
 Vibration     7          0.628              1.872              2.375
 Vibration     8          0.661              1.769              1.759
 Vibration     9          0.667              1.749              1.673
 Vibration    10          0.694              1.670              1.406
 Vibration    11          0.737              1.549              1.110
 Vibration    12          0.762              1.480              0.979
 Vibration    13          0.765              1.472              0.966
 Vibration    14          0.809              1.361              0.796
 Vibration    15          0.846              1.272              0.683
 Vibration    16          0.861              1.238              0.645
 Vibration    17          0.913              1.124              0.530
 Vibration    18          0.930              1.088              0.497
 Vibration    19          0.970              1.008              0.431

 Optimization completed.
    -- Stationary point found.
 Normal termination of Gaussian 16 at Fri May 20 22:29:27 2022.
