 Gaussian 16, Revision C.01,
 Gaussian 16:  ES64L-G16RevC.01  3-Jul-2019

 -----------------------------------------------------
 #m062X/gen 6D OPT Freq=noraman SCRF=(SMD,Solvent=h2o)
 -----------------------------------------------------

 -------------------
 A.26.smd.a1c2d2.smd
 -------------------
 Symbolic Z-matrix:
 Charge = -1 Multiplicity = 1

 SCF Done:  E(RM062X) =  -1435.56746301     A.U. after   15 cycles
 SCF Done:  E(RM062X) =  -1435.57431976     A.U. after   14 cycles
 SCF Done:  E(RM062X) =  -1435.57738106     A.U. after   15 cycles
 SCF Done:  E(RM062X) =  -1435.57948637     A.U. after   15 cycles
 SCF Done:  E(RM062X) =  -1435.58048436     A.U. after   14 cycles
 SCF Done:  E(RM062X) =  -1435.58164028     A.U. after   13 cycles
 SCF Done:  E(RM062X) =  -1435.58167841     A.U. after   12 cycles
 SCF Done:  E(RM062X) =  -1435.58179133     A.U. after   12 cycles
 SCF Done:  E(RM062X) =  -1435.58189002     A.U. after   13 cycles
 SCF Done:  E(RM062X) =  -1435.58193667     A.U. after   13 cycles
 SCF Done:  E(RM062X) =  -1435.58300993     A.U. after   10 cycles
 SCF Done:  E(RM062X) =  -1435.58301380     A.U. after   10 cycles
 SCF Done:  E(RM062X) =  -1435.58301663     A.U. after   10 cycles
 SCF Done:  E(RM062X) =  -1435.58301995     A.U. after   10 cycles
 SCF Done:  E(RM062X) =  -1435.58302370     A.U. after   11 cycles
 SCF Done:  E(RM062X) =  -1435.58302510     A.U. after   10 cycles
 SCF Done:  E(RM062X) =  -1435.58302524     A.U. after    8 cycles
 SCF Done:  E(RM062X) =  -1435.58302529     A.U. after    9 cycles
 SCF Done:  E(RM062X) =  -1435.58302532     A.U. after    9 cycles
 Optimization completed.
    -- Stationary point found.
 Normal termination of Gaussian 16 at Sat May 21 00:26:23 2022.

 ------------------------------------------------------------------
 #N Geom=AllCheck Guess=TCheck SCRF=Check GenChk RM062X/ChkBas Freq
 ------------------------------------------------------------------

 Structure from the checkpoint file:  "/jobfs/40783720.gadi-pbs/Gau-1389443.chk"
 -------------------
 A.26.smd.a1c2d2.smd
 -------------------
 Charge = -1 Multiplicity = 1

                         Standard orientation:
 ---------------------------------------------------------------------
 Center     Atomic      Atomic             Coordinates (Angstroms)
 Number     Number       Type             X           Y           Z
 ---------------------------------------------------------------------
      1          6           0       -1.070466    0.185497    0.054470
      2          7           0       -0.752595    1.429735    0.038145
      3          7           0        0.596580    1.574211    0.012661
      4          6           0        1.341766    0.447475    0.011311
      5          7           0        2.651589    0.491542   -0.003664
      6         16           0        0.259772   -0.940860    0.048036
      7         16           0       -2.803393   -0.350261   -0.014319
      8          8           0       -2.959923   -0.643016   -1.464369
      9          8           0       -2.781683   -1.551682    0.852697
     10          7           0       -3.719880    0.744737    0.574656
     11          1           0       -3.862825    1.473452   -0.128516
     12          6           0        1.177432    2.912707    0.007293
     13          1           0        0.351829    3.621639    0.002824
     14          1           0        1.790117    3.042742   -0.885982
     15          1           0        1.788999    3.051979    0.900209
     16          6           0        3.321332   -0.707861   -0.008022
     17          6           0        4.817823   -0.591959   -0.036912
     18          8           0        2.755337   -1.810432    0.009786
     19          1           0        5.160397   -0.019490    0.830680
     20          1           0        5.126950   -0.046427   -0.934094
     21          1           0        5.275448   -1.581654   -0.030936
 ---------------------------------------------------------------------

 SCF Done:  E(RM062X) =  -1435.58302532     A.U. after    1 cycles

 The electronic state is 1-A.
 Alpha  occ. eigenvalues --  -90.15240 -89.98767 -19.63962 -19.63196 -19.63188
 Alpha  occ. eigenvalues --  -14.87262 -14.83745 -14.76125 -14.73211 -10.68467
 Alpha  occ. eigenvalues --  -10.66497 -10.63962 -10.58558 -10.53897  -8.46033
 Alpha  occ. eigenvalues --   -8.33117  -6.38259  -6.38201  -6.38131  -6.25092
 Alpha  occ. eigenvalues --   -6.24871  -6.24595  -1.22547  -1.20524  -1.17454
 Alpha  occ. eigenvalues --   -1.10578  -1.04738  -0.98839  -0.97292  -0.91633
 Alpha  occ. eigenvalues --   -0.83657  -0.82199  -0.76913  -0.71038  -0.66689
 Alpha  occ. eigenvalues --   -0.63647  -0.58812  -0.58182  -0.57415  -0.56869
 Alpha  occ. eigenvalues --   -0.56007  -0.53229  -0.52240  -0.52196  -0.49096
 Alpha  occ. eigenvalues --   -0.48333  -0.46687  -0.45683  -0.44564  -0.43370
 Alpha  occ. eigenvalues --   -0.41411  -0.40899  -0.40036  -0.38852  -0.38265
 Alpha  occ. eigenvalues --   -0.36513  -0.35937  -0.33951  -0.33640  -0.31685
 Alpha  occ. eigenvalues --   -0.29521
 Alpha virt. eigenvalues --   -0.01898   0.01097   0.01339   0.02696   0.03346
 Alpha virt. eigenvalues --    0.04222   0.04356   0.04720   0.05419   0.06060
 Alpha virt. eigenvalues --    0.06288   0.06643   0.07093   0.07662   0.08360

 Mulliken charges:
               1
     1  C   -1.046534
     2  N    0.025949
     3  N   -0.189323
     4  C   -0.478505
     5  N   -0.329028
     6  S    0.900137
     7  S    1.637561
     8  O   -0.679645
     9  O   -0.719857
    10  N   -0.917325
    11  H    0.416803
    12  C   -0.506103
    13  H    0.273396
    14  H    0.279553
    15  H    0.280326
    16  C    0.958740
    17  C   -1.076381
    18  O   -0.609960
    19  H    0.265156
    20  H    0.265715
    21  H    0.249325
 Sum of Mulliken charges =  -1.00000

 Dipole moment (field-independent basis, Debye):
    X=             14.4337    Y=              9.0500    Z=             -1.0098  Tot=             17.0662
 Quadrupole moment (field-independent basis, Debye-Ang):
   XX=           -146.4077   YY=           -103.7133   ZZ=           -107.5857
   XY=             -2.3436   XZ=              4.6440   YZ=             -1.4347

  Exact polarizability:     262.356      -9.473     205.578      -3.776       1.431     134.836
 Approx polarizability:     204.626      -4.595     190.965      -3.222       0.782     125.780

                      1                      2                      3
                      A                      A                      A
 Frequencies --     24.3653                50.7183                79.9985
 Red. masses --      8.1053                 3.3878                 1.6563
 Frc consts  --      0.0028                 0.0051                 0.0062
 IR Inten    --      0.3163                 0.3848                 4.1895

                      4                      5                      6
                      A                      A                      A
 Frequencies --     95.8351                99.5841               112.7875
 Red. masses --      2.6521                 6.1378                 1.1514
 Frc consts  --      0.0144                 0.0359                 0.0086
 IR Inten    --      1.8252                 1.7665                 0.1126

                      7                      8                      9
                      A                      A                      A
 Frequencies --    142.4064               166.1885               173.6374
 Red. masses --      7.1229                 4.8782                 4.2800
 Frc consts  --      0.0851                 0.0794                 0.0760
 IR Inten    --      2.1686                21.3186                19.0905

                     10                     11                     12
                      A                      A                      A
 Frequencies --    248.6643               255.7722               275.3679
 Red. masses --      5.8965                 7.2392                 3.7245
 Frc consts  --      0.2148                 0.2790                 0.1664
 IR Inten    --      0.7008                 0.9459                23.7082

                     13                     14                     15
                      A                      A                      A
 Frequencies --    297.4014               375.4954               383.9371
 Red. masses --      5.3122                 4.2439                 4.5236
 Frc consts  --      0.2768                 0.3526                 0.3929
 IR Inten    --     30.1366                 5.1972                36.5454

                     16                     17                     18
                      A                      A                      A
 Frequencies --    437.9685               474.6497               496.6744
 Red. masses --      3.5257                 4.4009                 2.4635
 Frc consts  --      0.3985                 0.5842                 0.3581
 IR Inten    --    103.7669                 3.1603               176.6568

                     19                     20                     21
                      A                      A                      A
 Frequencies --    511.6113               545.2585               594.1374
 Red. masses --     11.8469                 6.8282                12.7907
 Frc consts  --      1.8270                 1.1961                 2.6602
 IR Inten    --     48.1041                87.0064               277.4672

                     22                     23                     24
                      A                      A                      A
 Frequencies --    611.6213               623.4715               650.4827
 Red. masses --      3.8004                 8.5445                 4.7160
 Frc consts  --      0.8376                 1.9569                 1.1757
 IR Inten    --      1.4064                 0.8424               200.7830

                     25                     26                     27
                      A                      A                      A
 Frequencies --    662.7531               719.7994               766.9967
 Red. masses --      5.6663                 9.6213                 9.4152
 Frc consts  --      1.4664                 2.9370                 3.2634
 IR Inten    --     21.6993                34.1911                45.3037

                     28                     29                     30
                      A                      A                      A
 Frequencies --    946.2200               975.6311              1017.8636
 Red. masses --      7.2436                 9.5076                 6.6301
 Frc consts  --      3.8211                 5.3320                 4.0472
 IR Inten    --     17.5495               469.7375                 4.5988

                     31                     32                     33
                      A                      A                      A
 Frequencies --   1036.0740              1062.6691              1075.4315
 Red. masses --      1.7155                 1.8499                 1.9840
 Frc consts  --      1.0850                 1.2308                 1.3520
 IR Inten    --     62.7371                16.3732               409.2547

                     34                     35                     36
                      A                      A                      A
 Frequencies --   1084.5345              1137.4205              1145.8500
 Red. masses --      2.3431                 4.3688                 4.9261
 Frc consts  --      1.6238                 3.3301                 3.8107
 IR Inten    --    161.4572               184.1412               374.5655

                     37                     38                     39
                      A                      A                      A
 Frequencies --   1157.7928              1200.8289              1293.7830
 Red. masses --      1.3007                 3.9968                 3.4162
 Frc consts  --      1.0273                 3.3957                 3.3692
 IR Inten    --      0.4376               471.8037               440.8222

                     40                     41                     42
                      A                      A                      A
 Frequencies --   1359.3952              1409.7725              1438.8177
 Red. masses --      3.3726                 2.0727                 4.2144
 Frc consts  --      3.6720                 2.4271                 5.1404
 IR Inten    --    495.4722               119.4315               854.6460

                     43                     44                     45
                      A                      A                      A
 Frequencies --   1452.0214              1467.2594              1475.2873
 Red. masses --      1.4000                 1.0779                 1.0444
 Frc consts  --      1.7391                 1.3672                 1.3393
 IR Inten    --    162.0255                64.0092                17.2786

                     46                     47                     48
                      A                      A                      A
 Frequencies --   1484.8440              1508.4205              1543.1128
 Red. masses --      1.0380                 1.1154                 4.3438
 Frc consts  --      1.3483                 1.4952                 6.0942
 IR Inten    --     23.7838                27.8839               976.0959

                     49                     50                     51
                      A                      A                      A
 Frequencies --   1655.9718              1680.4442              3097.3407
 Red. masses --     12.5969                 9.8973                 1.0373
 Frc consts  --     20.3525                16.4671                 5.8632
 IR Inten    --    109.4163               575.4695                 0.1710

                     52                     53                     54
                      A                      A                      A
 Frequencies --   3124.8561              3167.7355              3206.6510
 Red. masses --      1.0324                 1.1011                 1.1045
 Frc consts  --      5.9394                 6.5097                 6.6916
 IR Inten    --     21.5644                 2.4640                16.3876

                     55                     56                     57
                      A                      A                      A
 Frequencies --   3207.2961              3241.2160              3515.3948
 Red. masses --      1.1079                 1.1062                 1.0740
 Frc consts  --      6.7146                 6.8469                 7.8203
 IR Inten    --      5.2922                 0.2752                68.5070

 - Thermochemistry -
 -------------------
 Temperature   298.150 Kelvin.  Pressure   1.00000 Atm.
 Atom     1 has atomic number  6 and mass  12.00000

 Molecular mass:   234.99596 amu.
 Principal axes and moments of inertia in atomic units:
                           1         2         3
     Eigenvalues --  1461.545985580.482486656.97724
           X            1.00000  -0.00132  -0.00010
           Y            0.00132   1.00000  -0.00022
           Z            0.00010   0.00022   1.00000
 This molecule is an asymmetric top.
 Rotational symmetry number  1.
 Warning -- assumption of classical behavior for rotation
           may cause significant error
 Rotational temperatures (Kelvin)      0.05926     0.01552     0.01301
 Rotational constants (GHZ):           1.23482     0.32340     0.27111
 Zero-point vibrational energy     371126.6 (Joules/Mol)
                                   88.70138 (Kcal/Mol)
 Warning -- explicit consideration of  22 degrees of freedom as
           vibrations may cause significant error
 Vibrational temperatures:     35.06    72.97   115.10   137.89   143.28
          (Kelvin)            162.28   204.89   239.11   249.83   357.77
                              368.00   396.19   427.89   540.25   552.40
                              630.14   682.92   714.60   736.09   784.51
                              854.83   879.99   897.04   935.90   953.55
                             1035.63  1103.54  1361.40  1403.72  1464.48
                             1490.68  1528.94  1547.31  1560.40  1636.49
                             1648.62  1665.81  1727.73  1861.47  1955.87
                             2028.35  2070.14  2089.13  2111.06  2122.61
                             2136.36  2170.28  2220.20  2382.57  2417.78
                             4456.38  4495.97  4557.66  4613.66  4614.58
                             4663.39  5057.87

 Zero-point correction=                           0.141355 (Hartree/Particle)
 Thermal correction to Energy=                    0.155706
 Thermal correction to Enthalpy=                  0.156650
 Thermal correction to Gibbs Free Energy=         0.098289
 Sum of electronic and zero-point Energies=          -1435.441671
 Sum of electronic and thermal Energies=             -1435.427319
 Sum of electronic and thermal Enthalpies=           -1435.426375
 Sum of electronic and thermal Free Energies=        -1435.484736

                     E (Thermal)             CV                S
                      KCal/Mol        Cal/Mol-Kelvin    Cal/Mol-Kelvin
 Total                   97.707             50.428            122.831
 Electronic               0.000              0.000              0.000
 Translational            0.889              2.981             42.265
 Rotational               0.889              2.981             32.362
 Vibrational             95.930             44.467             48.204
 Vibration     1          0.593              1.985              6.242
 Vibration     2          0.595              1.977              4.789
 Vibration     3          0.600              1.963              3.891
 Vibration     4          0.603              1.952              3.537
 Vibration     5          0.604              1.949              3.462
 Vibration     6          0.607              1.939              3.220
 Vibration     7          0.616              1.911              2.771
 Vibration     8          0.624              1.884              2.478
 Vibration     9          0.627              1.875              2.396
 Vibration    10          0.662              1.765              1.740
 Vibration    11          0.666              1.753              1.690
 Vibration    12          0.677              1.719              1.562
 Vibration    13          0.691              1.679              1.431
 Vibration    14          0.746              1.522              1.057
 Vibration    15          0.753              1.504              1.024
 Vibration    16          0.798              1.387              0.833
 Vibration    17          0.831              1.306              0.725
 Vibration    18          0.852              1.257              0.666
 Vibration    19          0.867              1.224              0.630
 Vibration    20          0.900              1.150              0.554
 Vibration    21          0.952              1.044              0.460
 Vibration    22          0.971              1.007              0.430

 Optimization completed.
    -- Stationary point found.
 Normal termination of Gaussian 16 at Sat May 21 00:30:56 2022.
