 Gaussian 16, Revision C.01,
 Gaussian 16:  ES64L-G16RevC.01  3-Jul-2019

 -----------------------------------------------------
 #m062X/gen 6D OPT Freq=noraman SCRF=(SMD,Solvent=h2o)
 -----------------------------------------------------

 -----------------
 A.27.smd.a2d3.smd
 -----------------
 Symbolic Z-matrix:
 Charge = -1 Multiplicity = 1

 SCF Done:  E(RM062X) =  -1479.69258141     A.U. after   16 cycles
 SCF Done:  E(RM062X) =  -1479.69555605     A.U. after   14 cycles
 SCF Done:  E(RM062X) =  -1479.69590275     A.U. after   13 cycles
 SCF Done:  E(RM062X) =  -1479.69600222     A.U. after   13 cycles
 SCF Done:  E(RM062X) =  -1479.69634094     A.U. after   14 cycles
 SCF Done:  E(RM062X) =  -1479.63204282     A.U. after   16 cycles
 SCF Done:  E(RM062X) =  -1479.69693470     A.U. after   15 cycles
 SCF Done:  E(RM062X) =  -1479.67359067     A.U. after   15 cycles
 SCF Done:  E(RM062X) =  -1479.69765856     A.U. after   14 cycles
 SCF Done:  E(RM062X) =  -1479.69893272     A.U. after   14 cycles
 SCF Done:  E(RM062X) =  -1479.69982255     A.U. after   13 cycles
 SCF Done:  E(RM062X) =  -1479.70027015     A.U. after   13 cycles
 SCF Done:  E(RM062X) =  -1479.70038568     A.U. after   13 cycles
 SCF Done:  E(RM062X) =  -1479.70041663     A.U. after   11 cycles
 SCF Done:  E(RM062X) =  -1479.70042923     A.U. after   11 cycles
 SCF Done:  E(RM062X) =  -1479.70043265     A.U. after   10 cycles
 SCF Done:  E(RM062X) =  -1479.70043565     A.U. after   11 cycles
 SCF Done:  E(RM062X) =  -1479.70043611     A.U. after    9 cycles
 SCF Done:  E(RM062X) =  -1479.70043621     A.U. after    9 cycles
 Optimization completed.
    -- Stationary point found.
 Normal termination of Gaussian 16 at Wed May 25 13:00:54 2022.

 ------------------------------------------------------------------
 #N Geom=AllCheck Guess=TCheck SCRF=Check GenChk RM062X/ChkBas Freq
 ------------------------------------------------------------------

 Structure from the checkpoint file:  "/jobfs/41195480.gadi-pbs/Gau-1949170.chk"
 -----------------
 A.27.smd.a2d3.smd
 -----------------
 Charge = -1 Multiplicity = 1

                         Standard orientation:
 ---------------------------------------------------------------------
 Center     Atomic      Atomic             Coordinates (Angstroms)
 Number     Number       Type             X           Y           Z
 ---------------------------------------------------------------------
      1          6           0       -1.836121    0.062120   -0.047437
      2         16           0       -3.633930   -0.157446    0.010428
      3          8           0       -4.096712    0.585356   -1.192647
      4          8           0       -3.772990   -1.631628   -0.076958
      5          7           0       -4.172726    0.352659    1.374070
      6          1           0       -4.208779    1.374836    1.345603
      7          7           0       -1.276092    1.219810   -0.040049
      8          6           0        0.106551    1.084977   -0.027999
      9          6           0        0.575026   -0.240061   -0.022646
     10         16           0       -0.781656   -1.333416   -0.036983
     11          6           0        1.031258    2.141641   -0.020959
     12          6           0        2.378884    1.850229   -0.006675
     13          6           0        2.833830    0.511382   -0.000971
     14          6           0        1.939875   -0.554228   -0.010230
     15          8           0        4.188176    0.362449    0.014950
     16          6           0        4.718852   -0.967537    0.025109
     17          6           0        6.225731   -0.854109    0.046861
     18          1           0        0.681803    3.169589   -0.025325
     19          1           0        3.119899    2.643689    0.000692
     20          1           0        2.271492   -1.585860   -0.006611
     21          1           0        4.373144   -1.497852   -0.870115
     22          1           0        4.347415   -1.494430    0.912010
     23          1           0        6.587522   -0.324065   -0.839172
     24          1           0        6.666413   -1.855215    0.055680
     25          1           0        6.561079   -0.320091    0.940901
 ---------------------------------------------------------------------

 SCF Done:  E(RM062X) =  -1479.70043621     A.U. after    1 cycles

 The electronic state is 1-A.
 Alpha  occ. eigenvalues --  -90.14672 -89.97046 -19.68244 -19.62913 -19.62884
 Alpha  occ. eigenvalues --  -14.78750 -14.72771 -10.63671 -10.62665 -10.60096
 Alpha  occ. eigenvalues --  -10.59727 -10.59415 -10.56653 -10.56650 -10.55919
 Alpha  occ. eigenvalues --  -10.53299  -8.45506  -8.31468  -6.37738  -6.37667
 Alpha  occ. eigenvalues --   -6.37592  -6.23462  -6.23251  -6.22983  -1.21983
 Alpha  occ. eigenvalues --   -1.19690  -1.10310  -1.09291  -0.97340  -0.96370
 Alpha  occ. eigenvalues --   -0.90970  -0.87594  -0.83891  -0.82997  -0.75447
 Alpha  occ. eigenvalues --   -0.71765  -0.69124  -0.67432  -0.64586  -0.60444
 Alpha  occ. eigenvalues --   -0.59532  -0.57330  -0.56546  -0.56233  -0.53620
 Alpha  occ. eigenvalues --   -0.52560  -0.51460  -0.51122  -0.48484  -0.47552
 Alpha  occ. eigenvalues --   -0.46925  -0.45839  -0.44220  -0.43055  -0.41956
 Alpha  occ. eigenvalues --   -0.41763  -0.40284  -0.39993  -0.38436  -0.38277
 Alpha  occ. eigenvalues --   -0.37554  -0.37155  -0.35519  -0.33488  -0.31218
 Alpha  occ. eigenvalues --   -0.29621  -0.27306
 Alpha virt. eigenvalues --   -0.01372   0.00855   0.01347   0.02469   0.03350
 Alpha virt. eigenvalues --    0.03684   0.04435   0.04682   0.04827   0.05128
 Alpha virt. eigenvalues --    0.05548   0.06017   0.06131   0.06713   0.07755

 Mulliken charges:
               1
     1  C   -0.578973
     2  S    1.864727
     3  O   -0.675551
     4  O   -0.746536
     5  N   -0.921173
     6  H    0.412035
     7  N   -0.155029
     8  C   -0.301121
     9  C    0.557737
    10  S    0.461668
    11  C   -1.633679
    12  C   -0.283771
    13  C    0.121051
    14  C    0.307936
    15  O   -0.482758
    16  C    0.067824
    17  C   -1.001784
    18  H    0.270420
    19  H    0.261546
    20  H    0.277096
    21  H    0.235312
    22  H    0.235171
    23  H    0.234354
    24  H    0.239179
    25  H    0.234319
 Sum of Mulliken charges =  -1.00000

 Dipole moment (field-independent basis, Debye):
    X=             23.4044    Y=              0.1542    Z=              0.3459  Tot=             23.4074
 Quadrupole moment (field-independent basis, Debye-Ang):
   XX=           -185.6809   YY=           -110.0809   ZZ=           -122.7175
   XY=            -19.3045   XZ=             -0.8718   YZ=              3.4463

  Exact polarizability:     335.233       9.999     246.641      -5.288       0.491     165.210
 Approx polarizability:     263.482       7.492     231.515      -2.906       0.118     149.887

                      1                      2                      3
                      A                      A                      A
 Frequencies --     27.1579                43.4565                78.7693
 Red. masses --      7.0535                 5.8208                 6.7121
 Frc consts  --      0.0031                 0.0065                 0.0245
 IR Inten    --      1.2444                 2.2400                 5.8939

                      4                      5                      6
                      A                      A                      A
 Frequencies --     97.2016               126.3020               157.4234
 Red. masses --      5.7406                 1.7221                 5.0389
 Frc consts  --      0.0320                 0.0162                 0.0736
 IR Inten    --      8.1565                 1.8017                 2.4020

                      7                      8                      9
                      A                      A                      A
 Frequencies --    162.4179               203.6041               228.8727
 Red. masses --      7.9562                 5.3316                 7.2824
 Frc consts  --      0.1237                 0.1302                 0.2248
 IR Inten    --      0.8764                 5.5397                 2.2103

                     10                     11                     12
                      A                      A                      A
 Frequencies --    265.3846               272.1944               285.1987
 Red. masses --      2.4274                 1.6552                 5.8853
 Frc consts  --      0.1007                 0.0723                 0.2820
 IR Inten    --     15.6004                13.5941                15.9404

                     13                     14                     15
                      A                      A                      A
 Frequencies --    325.9435               374.9887               396.0624
 Red. masses --      4.4236                 4.2516                 8.8064
 Frc consts  --      0.2769                 0.3522                 0.8139
 IR Inten    --      4.4128                43.5784                 0.9695

                     16                     17                     18
                      A                      A                      A
 Frequencies --    441.2403               444.1606               450.0543
 Red. masses --      2.9238                 3.0731                 4.1076
 Frc consts  --      0.3354                 0.3572                 0.4902
 IR Inten    --     74.8583                 9.2482                63.3439

                     19                     20                     21
                      A                      A                      A
 Frequencies --    492.1743               496.6127               545.1488
 Red. masses --      2.5743                13.5306                 6.8516
 Frc consts  --      0.3674                 1.9661                 1.1997
 IR Inten    --    151.1646                35.5045                68.4629

                     22                     23                     24
                      A                      A                      A
 Frequencies --    563.7337               594.7213               608.0262
 Red. masses --      6.9887                 6.0494                 8.5310
 Frc consts  --      1.3086                 1.2606                 1.8582
 IR Inten    --     98.6706                12.8118               174.7653

                     25                     26                     27
                      A                      A                      A
 Frequencies --    633.4998               702.5380               715.3630
 Red. masses --      4.7284                 9.9787                 7.6090
 Frc consts  --      1.1180                 2.9018                 2.2942
 IR Inten    --     32.9206                31.9410                30.4958

                     28                     29                     30
                      A                      A                      A
 Frequencies --    733.7080               837.2085               841.2458
 Red. masses --      5.2852                 1.2028                 1.4601
 Frc consts  --      1.6763                 0.4967                 0.6088
 IR Inten    --      0.2686                 0.0022                86.5664

                     31                     32                     33
                      A                      A                      A
 Frequencies --    842.9825               869.9595               908.7458
 Red. masses --      4.9094                 1.3718                 3.4106
 Frc consts  --      2.0555                 0.6117                 1.6594
 IR Inten    --     94.7090                51.7268                 5.8372

                     34                     35                     36
                      A                      A                      A
 Frequencies --    958.8022               976.2006               985.2965
 Red. masses --      9.3849                 3.3839                 1.3102
 Frc consts  --      5.0832                 1.9000                 0.7494
 IR Inten    --    422.6807                 4.9017                 0.3082

                     37                     38                     39
                      A                      A                      A
 Frequencies --   1051.8457              1076.6300              1091.5373
 Red. masses --      4.1547                 2.5092                 3.4429
 Frc consts  --      2.7083                 1.7136                 2.4169
 IR Inten    --    159.4756               350.5036               258.8324

                     40                     41                     42
                      A                      A                      A
 Frequencies --   1112.2335              1133.3001              1146.1784
 Red. masses --      4.9737                 3.0325                 1.3306
 Frc consts  --      3.6251                 2.2948                 1.0299
 IR Inten    --    184.6110               312.4690                 0.5519

                     43                     44                     45
                      A                      A                      A
 Frequencies --   1149.9464              1186.7613              1201.1392
 Red. masses --      1.9427                 1.5281                 4.1011
 Frc consts  --      1.5136                 1.2680                 3.4861
 IR Inten    --     42.9583                10.3700               480.7465

                     46                     47                     48
                      A                      A                      A
 Frequencies --   1265.8254              1299.0587              1311.7618
 Red. masses --      2.9464                 2.5080                 2.3557
 Frc consts  --      2.7816                 2.4936                 2.3882
 IR Inten    --    439.9661               156.4544                21.6336

                     49                     50                     51
                      A                      A                      A
 Frequencies --   1321.7471              1367.4092              1409.2875
 Red. masses --      1.0943                 8.6326                 1.2356
 Frc consts  --      1.1263                 9.5102                 1.4459
 IR Inten    --      2.1540                15.9121                 0.1202

                     52                     53                     54
                      A                      A                      A
 Frequencies --   1444.0130              1472.2481              1489.9043
 Red. masses --      1.4081                 3.9756                 1.0384
 Frc consts  --      1.7299                 5.0771                 1.3581
 IR Inten    --     63.0153                 0.9937                12.8213

                     55                     56                     57
                      A                      A                      A
 Frequencies --   1501.3169              1508.7405              1535.9909
 Red. masses --      1.0991                 2.4469                 1.2017
 Frc consts  --      1.4596                 3.2817                 1.6704
 IR Inten    --     11.2285               261.9599                 2.2672

                     58                     59                     60
                      A                      A                      A
 Frequencies --   1595.0725              1637.2148              1682.9308
 Red. masses --      9.7770                 8.1323                 6.9474
 Frc consts  --     14.6560                12.8432                11.5933
 IR Inten    --    198.7555                12.5781               207.1731

                     61                     62                     63
                      A                      A                      A
 Frequencies --   3076.6056              3090.5978              3123.5424
 Red. masses --      1.0564                 1.0357                 1.1090
 Frc consts  --      5.8917                 5.8288                 6.3751
 IR Inten    --     38.1565                22.8515                35.7830

                     64                     65                     66
                      A                      A                      A
 Frequencies --   3170.2509              3171.8113              3239.4323
 Red. masses --      1.1051                 1.1027                 1.0894
 Frc consts  --      6.5442                 6.5364                 6.7353
 IR Inten    --     48.3241                27.0193                 1.9459

                     67                     68                     69
                      A                      A                      A
 Frequencies --   3251.8471              3274.1118              3508.5673
 Red. masses --      1.0970                 1.0924                 1.0737
 Frc consts  --      6.8347                 6.8993                 7.7876
 IR Inten    --      2.3168                 4.9198                55.2758

 - Thermochemistry -
 -------------------
 Temperature   298.150 Kelvin.  Pressure   1.00000 Atm.
 Atom     1 has atomic number  6 and mass  12.00000

 Molecular mass:   257.00546 amu.
 Principal axes and moments of inertia in atomic units:
                           1         2         3
     Eigenvalues --  1257.354389781.09426**********
           X            0.99993  -0.01185  -0.00169
           Y            0.01186   0.99991   0.00666
           Z            0.00161  -0.00668   0.99998
 This molecule is an asymmetric top.
 Rotational symmetry number  1.
 Warning -- assumption of classical behavior for rotation
           may cause significant error
 Rotational temperatures (Kelvin)      0.06889     0.00886     0.00813
 Rotational constants (GHZ):           1.43535     0.18451     0.16947
 Zero-point vibrational energy     470044.2 (Joules/Mol)
                                  112.34327 (Kcal/Mol)
 Warning -- explicit consideration of  24 degrees of freedom as
           vibrations may cause significant error
 Vibrational temperatures:     39.07    62.52   113.33   139.85   181.72
          (Kelvin)            226.50   233.68   292.94   329.30   381.83
                              391.63   410.34   468.96   539.53   569.85
                              634.85   639.05   647.53   708.13   714.51
                              784.35   811.09   855.67   874.81   911.46
                             1010.80  1029.25  1055.64  1204.56  1210.37
                             1212.86  1251.68  1307.48  1379.50  1404.53
                             1417.62  1513.37  1549.03  1570.48  1600.26
                             1630.57  1649.10  1654.52  1707.48  1728.17
                             1821.24  1869.06  1887.33  1901.70  1967.40
                             2027.65  2077.61  2118.24  2143.64  2160.06
                             2170.74  2209.95  2294.95  2355.59  2421.36
                             4426.55  4446.68  4494.08  4561.28  4563.53
                             4660.82  4678.68  4710.72  5048.05

 Zero-point correction=                           0.179030 (Hartree/Particle)
 Thermal correction to Energy=                    0.193673
 Thermal correction to Enthalpy=                  0.194618
 Thermal correction to Gibbs Free Energy=         0.136022
 Sum of electronic and zero-point Energies=          -1479.521406
 Sum of electronic and thermal Energies=             -1479.506763
 Sum of electronic and thermal Enthalpies=           -1479.505819
 Sum of electronic and thermal Free Energies=        -1479.564414

                     E (Thermal)             CV                S
                      KCal/Mol        Cal/Mol-Kelvin    Cal/Mol-Kelvin
 Total                  121.532             55.044            123.325
 Electronic               0.000              0.000              0.000
 Translational            0.889              2.981             42.532
 Rotational               0.889              2.981             33.237
 Vibrational            119.754             49.083             47.556
 Vibration     1          0.593              1.984              6.027
 Vibration     2          0.595              1.980              5.095
 Vibration     3          0.600              1.963              3.921
 Vibration     4          0.603              1.951              3.510
 Vibration     5          0.611              1.927              3.002
 Vibration     6          0.621              1.894              2.581
 Vibration     7          0.623              1.889              2.521
 Vibration     8          0.639              1.835              2.100
 Vibration     9          0.652              1.797              1.888
 Vibration    10          0.671              1.737              1.626
 Vibration    11          0.675              1.725              1.582
 Vibration    12          0.683              1.701              1.502
 Vibration    13          0.710              1.624              1.280
 Vibration    14          0.746              1.523              1.059
 Vibration    15          0.763              1.479              0.977
 Vibration    16          0.801              1.380              0.823
 Vibration    17          0.804              1.374              0.814
 Vibration    18          0.809              1.361              0.796
 Vibration    19          0.848              1.267              0.678
 Vibration    20          0.852              1.258              0.667
 Vibration    21          0.900              1.150              0.554
 Vibration    22          0.920              1.110              0.516
 Vibration    23          0.952              1.043              0.459
 Vibration    24          0.967              1.015              0.436

                           ! Non-Optimized Parameters !
 Normal termination of Gaussian 16 at Wed May 25 13:07:59 2022.
