 Gaussian 16, Revision C.01,
 Gaussian 16:  ES64L-G16RevC.01  3-Jul-2019

 -----------------------------------------------------
 #m062X/gen 6D OPT Freq=noraman SCRF=(SMD,Solvent=h2o)
 -----------------------------------------------------

 -------------------
 A.28.smd.a2b3c3.smd
 -------------------
 Symbolic Z-matrix:
 Charge = -1 Multiplicity = 1

 SCF Done:  E(RM062X) =  -2530.50357916     A.U. after   17 cycles
 SCF Done:  E(RM062X) =  -2530.50982100     A.U. after   14 cycles
 SCF Done:  E(RM062X) =  -2530.51133453     A.U. after   14 cycles
 SCF Done:  E(RM062X) =  -2530.51206391     A.U. after   14 cycles
 SCF Done:  E(RM062X) =  -2530.51290861     A.U. after   15 cycles
 SCF Done:  E(RM062X) =  -2530.51322434     A.U. after   14 cycles
 SCF Done:  E(RM062X) =  -2530.51334112     A.U. after   14 cycles
 SCF Done:  E(RM062X) =  -2530.51345496     A.U. after   13 cycles
 SCF Done:  E(RM062X) =  -2530.51346784     A.U. after   12 cycles
 SCF Done:  E(RM062X) =  -2530.51346962     A.U. after   11 cycles
 SCF Done:  E(RM062X) =  -2530.51346990     A.U. after   10 cycles
 SCF Done:  E(RM062X) =  -2530.51347013     A.U. after   10 cycles
 SCF Done:  E(RM062X) =  -2530.51347031     A.U. after   10 cycles
 SCF Done:  E(RM062X) =  -2530.51347044     A.U. after   10 cycles
 Optimization completed.
    -- Stationary point found.
 Normal termination of Gaussian 16 at Wed Jun 29 17:10:33 2022.

 ------------------------------------------------------------------
 #N Geom=AllCheck Guess=TCheck SCRF=Check GenChk RM062X/ChkBas Freq
 ------------------------------------------------------------------

 Structure from the checkpoint file:  "/jobfs/48772940.gadi-pbs/Gau-2224489.chk"
 -------------------
 A.28.smd.a2b3c3.smd
 -------------------
 Charge = -1 Multiplicity = 1

                         Standard orientation:
 ---------------------------------------------------------------------
 Center     Atomic      Atomic             Coordinates (Angstroms)
 Number     Number       Type             X           Y           Z
 ---------------------------------------------------------------------
      1          6           0       -2.177859   -0.013494    0.009977
      2          6           0       -1.872776    1.346691   -0.173203
      3         17           0       -3.135873    2.549213   -0.208726
      4          6           0       -0.578059    1.800267   -0.326381
      5          1           0       -0.375915    2.858969   -0.457976
      6          6           0        0.498190    0.892211   -0.314854
      7          6           0        0.186860   -0.464168   -0.137434
      8         16           0        1.460772   -1.674550   -0.150983
      9          6           0       -1.122911   -0.910241    0.028117
     10          1           0       -1.325282   -1.967329    0.174148
     11         16           0       -3.864846   -0.641025    0.233781
     12          8           0       -4.533989   -0.295496   -1.054355
     13          8           0       -3.655794   -2.096927    0.431900
     14          7           0       -4.517945   -0.034513    1.512266
     15          1           0       -4.834057    0.912763    1.295448
     16          7           0        1.785489    1.339580   -0.413461
     17          6           0        2.876580    0.437045   -0.714298
     18          7           0        2.801831   -0.721022    0.207403
     19          8           0        1.271073   -2.617735    0.952839
     20          8           0        1.578170   -2.270723   -1.490093
     21          6           0        4.197145    1.177347   -0.615867
     22         17           0        4.559345    1.776043    1.038835
     23          1           0        1.902661    2.292694   -0.745085
     24          1           0        2.826990    0.081994   -1.758807
     25          1           0        4.150751    2.047472   -1.272584
     26          1           0        5.024932    0.544047   -0.929722
     27          6           0        4.020192   -1.562061    0.199634
     28          1           0        4.803457   -1.033526    0.742920
     29          1           0        4.354715   -1.789783   -0.818369
     30          1           0        3.812422   -2.490317    0.733470
 ---------------------------------------------------------------------

 SCF Done:  E(RM062X) =  -2530.51347044     A.U. after    2 cycles

 The electronic state is 1-A.
 Alpha  occ. eigenvalues -- -102.68747-102.66658 -90.18128 -90.14174 -19.66447
 Alpha  occ. eigenvalues --  -19.66205 -19.62339 -19.62232 -14.81989 -14.80253
 Alpha  occ. eigenvalues --  -14.72135 -10.65268 -10.64521 -10.63984 -10.61715
 Alpha  occ. eigenvalues --  -10.60350 -10.59354 -10.59068 -10.58389 -10.57946
 Alpha  occ. eigenvalues --   -9.83391  -9.81331  -8.49245  -8.44979  -7.55795
 Alpha  occ. eigenvalues --   -7.55137  -7.55105  -7.53725  -7.53073  -7.53068
 Alpha  occ. eigenvalues --   -6.41422  -6.41393  -6.41312  -6.37221  -6.37136
 Alpha  occ. eigenvalues --   -6.37062  -1.26200  -1.21288  -1.14254  -1.11275
 Alpha  occ. eigenvalues --   -1.09614  -1.04858  -1.01430  -0.97297  -0.96378
 Alpha  occ. eigenvalues --   -0.95490  -0.88684  -0.88200  -0.83347  -0.81343
 Alpha  occ. eigenvalues --   -0.75257  -0.74413  -0.72588  -0.69540  -0.65270
 Alpha  occ. eigenvalues --   -0.64736  -0.62541  -0.60598  -0.60320  -0.57743
 Alpha  occ. eigenvalues --   -0.56950  -0.55838  -0.55227  -0.54010  -0.52801
 Alpha  occ. eigenvalues --   -0.52567  -0.52149  -0.51579  -0.50502  -0.49601
 Alpha  occ. eigenvalues --   -0.48201  -0.47327  -0.47079  -0.46086  -0.44034
 Alpha  occ. eigenvalues --   -0.43256  -0.42932  -0.41989  -0.40980  -0.40174
 Alpha  occ. eigenvalues --   -0.39678  -0.39379  -0.38650  -0.37716  -0.37160
 Alpha  occ. eigenvalues --   -0.36910  -0.35946  -0.34522  -0.33323  -0.32422
 Alpha  occ. eigenvalues --   -0.30920  -0.27573
 Alpha virt. eigenvalues --   -0.02075   0.00036   0.01068   0.02196   0.02627
 Alpha virt. eigenvalues --    0.02729   0.03118   0.03961   0.04322   0.04459
 Alpha virt. eigenvalues --    0.05048   0.05565   0.06095   0.06530   0.06854

 Mulliken charges:
               1
     1  C   -2.811066
     2  C    1.499938
     3  Cl   0.233670
     4  C   -1.642959
     5  H    0.289595
     6  C    0.832622
     7  C    0.629079
     8  S    1.708019
     9  C   -0.573239
    10  H    0.307208
    11  S    1.598354
    12  O   -0.635566
    13  O   -0.776583
    14  N   -0.862337
    15  H    0.403803
    16  N   -0.502577
    17  C   -0.072459
    18  N   -0.549422
    19  O   -0.613383
    20  O   -0.513901
    21  C   -0.770129
    22  Cl   0.036935
    23  H    0.514618
    24  H    0.319035
    25  H    0.325270
    26  H    0.330941
    27  C   -0.552926
    28  H    0.278945
    29  H    0.295555
    30  H    0.272959
 Sum of Mulliken charges =  -1.00000

 Dipole moment (field-independent basis, Debye):
    X=             25.8967    Y=             12.9505    Z=             -5.6743  Tot=             29.5051
 Quadrupole moment (field-independent basis, Debye-Ang):
   XX=           -223.6674   YY=           -164.4488   ZZ=           -166.0474
   XY=            -17.9890   XZ=             -8.8408   YZ=             -5.5916

  Exact polarizability:     364.149      -5.164     295.602     -13.094      -4.376     225.257
 Approx polarizability:     286.221      -4.052     261.207      -6.945      -3.260     208.521

                      1                      2                      3
                      A                      A                      A
 Frequencies --     27.4191                53.2465                63.0782
 Red. masses --     11.2253                10.4880                10.0537
 Frc consts  --      0.0050                 0.0175                 0.0236
 IR Inten    --      2.4649                 4.5619                 5.1838

                      4                      5                      6
                      A                      A                      A
 Frequencies --     80.4551                94.5258               109.6571
 Red. masses --      8.5314                 8.9826                 6.6964
 Frc consts  --      0.0325                 0.0473                 0.0474
 IR Inten    --      7.5258                 1.6066                 3.0284

                      7                      8                      9
                      A                      A                      A
 Frequencies --    125.9113               164.1274               185.2363
 Red. masses --      9.3547                 5.9679                14.4896
 Frc consts  --      0.0874                 0.0947                 0.2929
 IR Inten    --      1.5146                 2.4838                 0.4724

                     10                     11                     12
                      A                      A                      A
 Frequencies --    191.8735               200.1088               219.4100
 Red. masses --     13.2775                 7.9026                 6.8887
 Frc consts  --      0.2880                 0.1864                 0.1954
 IR Inten    --      4.6717                 6.0079                10.9751

                     13                     14                     15
                      A                      A                      A
 Frequencies --    243.7838               251.8780               286.4026
 Red. masses --      6.6205                 8.7505                 1.1873
 Frc consts  --      0.2318                 0.3271                 0.0574
 IR Inten    --      1.5635                 2.7968                 2.6589

                     16                     17                     18
                      A                      A                      A
 Frequencies --    292.8655               314.5630               331.8318
 Red. masses --      5.5939                 4.8220                 3.3956
 Frc consts  --      0.2827                 0.2811                 0.2203
 IR Inten    --     14.2391                30.5441               108.9871

                     19                     20                     21
                      A                      A                      A
 Frequencies --    351.6812               378.2071               389.8178
 Red. masses --      3.1644                 2.6628                 1.5489
 Frc consts  --      0.2306                 0.2244                 0.1387
 IR Inten    --      4.3823               184.6032                88.9097

                     22                     23                     24
                      A                      A                      A
 Frequencies --    396.5742               418.0645               441.9973
 Red. masses --      3.3032                 4.0586                 3.8976
 Frc consts  --      0.3061                 0.4179                 0.4486
 IR Inten    --      8.1163                61.6368                10.7204

                     25                     26                     27
                      A                      A                      A
 Frequencies --    474.7531               489.8489               502.2616
 Red. masses --      3.8438                 6.1299                 2.7732
 Frc consts  --      0.5104                 0.8666                 0.4122
 IR Inten    --     78.2458                10.0537               233.4691

                     28                     29                     30
                      A                      A                      A
 Frequencies --    507.0705               517.5793               531.2328
 Red. masses --      5.2883                11.4980                 6.6724
 Frc consts  --      0.8011                 1.8148                 1.1094
 IR Inten    --     66.2164               101.5036                64.1304

                     31                     32                     33
                      A                      A                      A
 Frequencies --    555.9089               593.9309               617.1107
 Red. masses --      6.9309                 6.6816                 9.5975
 Frc consts  --      1.2620                 1.3887                 2.1534
 IR Inten    --    153.3667                39.3044                74.5821

                     34                     35                     36
                      A                      A                      A
 Frequencies --    664.7496               681.7550               692.6655
 Red. masses --     10.3626                 7.3944                 7.1776
 Frc consts  --      2.6980                 2.0249                 2.0290
 IR Inten    --     23.5017                44.9970                69.8680

                     37                     38                     39
                      A                      A                      A
 Frequencies --    715.8607               724.1740               794.4211
 Red. masses --      5.3062                 4.1409                 6.4230
 Frc consts  --      1.6021                 1.2795                 2.3883
 IR Inten    --     37.9412                65.5625                44.1923

                     40                     41                     42
                      A                      A                      A
 Frequencies --    816.2998               881.4498               915.3340
 Red. masses --      4.6647                 1.5159                 2.6088
 Frc consts  --      1.8314                 0.6940                 1.2878
 IR Inten    --    121.6565                50.5799                42.8739

                     43                     44                     45
                      A                      A                      A
 Frequencies --    920.5738               935.3101               954.5951
 Red. masses --      3.4353                 1.4053                 4.1564
 Frc consts  --      1.7153                 0.7243                 2.2315
 IR Inten    --     25.4919                23.1202               124.9749

                     46                     47                     48
                      A                      A                      A
 Frequencies --    990.1317              1072.3116              1079.5988
 Red. masses --      5.8143                 4.3499                 2.5378
 Frc consts  --      3.3584                 2.9469                 1.7428
 IR Inten    --    656.8271               700.1540                44.6119

                     49                     50                     51
                      A                      A                      A
 Frequencies --   1089.9627              1123.2980              1137.5645
 Red. masses --      5.3519                 2.4419                 3.4275
 Frc consts  --      3.7461                 1.8154                 2.6132
 IR Inten    --    176.4273               302.0765               148.4109

                     52                     53                     54
                      A                      A                      A
 Frequencies --   1144.6821              1154.0178              1159.1936
 Red. masses --      2.5391                 1.7869                 1.9921
 Frc consts  --      1.9602                 1.4021                 1.5772
 IR Inten    --     72.6157                44.4478               107.9159

                     55                     56                     57
                      A                      A                      A
 Frequencies --   1164.2175              1199.3971              1235.9683
 Red. masses --      2.7113                 3.0770                 1.7819
 Frc consts  --      2.1652                 2.6080                 1.6038
 IR Inten    --    226.9437               485.7442                55.7482

                     58                     59                     60
                      A                      A                      A
 Frequencies --   1256.2862              1260.6017              1280.2310
 Red. masses --      7.5298                 1.5029                 1.3035
 Frc consts  --      7.0018                 1.4072                 1.2588
 IR Inten    --    555.9493                61.9801                48.4885

                     61                     62                     63
                      A                      A                      A
 Frequencies --   1311.3225              1340.6022              1364.4103
 Red. masses --      2.9781                 2.1179                 1.8618
 Frc consts  --      3.0172                 2.2426                 2.0421
 IR Inten    --     73.1876                52.9832                51.1850

                     64                     65                     66
                      A                      A                      A
 Frequencies --   1380.7734              1397.7467              1431.6631
 Red. masses --      1.4900                 1.7898                 2.5094
 Frc consts  --      1.6737                 2.0602                 3.0305
 IR Inten    --    181.1318                30.4983                 3.4723

                     67                     68                     69
                      A                      A                      A
 Frequencies --   1471.8401              1495.7577              1506.1223
 Red. masses --      1.1869                 1.2013                 1.7442
 Frc consts  --      1.5149                 1.5836                 2.3311
 IR Inten    --      1.0680                47.4763                39.0516

                     70                     71                     72
                      A                      A                      A
 Frequencies --   1511.4573              1526.4131              1564.9094
 Red. masses --      1.1328                 1.0837                 2.8916
 Frc consts  --      1.5248                 1.4877                 4.1722
 IR Inten    --     20.6221                42.3378               438.3511

                     73                     74                     75
                      A                      A                      A
 Frequencies --   1637.5456              1673.0421              3020.8004
 Red. masses --      5.1884                 7.0695                 1.0819
 Frc consts  --      8.1973                11.6588                 5.8170
 IR Inten    --    134.1793               669.2115                57.2306

                     76                     77                     78
                      A                      A                      A
 Frequencies --   3096.7443              3163.6707              3191.1276
 Red. masses --      1.0398                 1.0616                 1.0990
 Frc consts  --      5.8748                 6.2603                 6.5938
 IR Inten    --     38.1423                 4.7215                 7.0003

                     79                     80                     81
                      A                      A                      A
 Frequencies --   3215.8905              3230.3353              3244.1634
 Red. masses --      1.1054                 1.1087                 1.0923
 Frc consts  --      6.7358                 6.8163                 6.7735
 IR Inten    --      1.3386                 1.1014                18.4220

                     82                     83                     84
                      A                      A                      A
 Frequencies --   3245.5360              3527.4600              3592.1358
 Red. masses --      1.0925                 1.0734                 1.0786
 Frc consts  --      6.7804                 7.8696                 8.2000
 IR Inten    --      5.2720                46.6667               202.0795

 - Thermochemistry -
 -------------------
 Temperature   298.150 Kelvin.  Pressure   1.00000 Atm.
 Atom     1 has atomic number  6 and mass  12.00000

 Molecular mass:   357.94898 amu.
 Principal axes and moments of inertia in atomic units:
                           1         2         3
     Eigenvalues --  3829.05430********************
           X            0.99996  -0.00385  -0.00769
           Y            0.00377   0.99994  -0.01052
           Z            0.00773   0.01049   0.99992
 This molecule is an asymmetric top.
 Rotational symmetry number  1.
 Warning -- assumption of classical behavior for rotation
           may cause significant error
 Rotational temperatures (Kelvin)      0.02262     0.00674     0.00560
 Rotational constants (GHZ):           0.47133     0.14042     0.11675
 Zero-point vibrational energy     541839.8 (Joules/Mol)
                                  129.50281 (Kcal/Mol)
 Warning -- explicit consideration of  33 degrees of freedom as
           vibrations may cause significant error
 Vibrational temperatures:     39.45    76.61    90.76   115.76   136.00
          (Kelvin)            157.77   181.16   236.14   266.51   276.06
                              287.91   315.68   350.75   362.40   412.07
                              421.37   452.59   477.43   505.99   544.16
                              560.86   570.58   601.50   635.94   683.06
                              704.78   722.64   729.56   744.68   764.33
                              799.83   854.53   887.88   956.43   980.89
                              996.59  1029.96  1041.92  1142.99  1174.47
                             1268.21  1316.96  1324.50  1345.70  1373.45
                             1424.58  1542.82  1553.30  1568.21  1616.18
                             1636.70  1646.94  1660.37  1667.82  1675.05
                             1725.66  1778.28  1807.52  1813.72  1841.97
                             1886.70  1928.83  1963.08  1986.62  2011.05
                             2059.84  2117.65  2152.06  2166.97  2174.65
                             2196.17  2251.56  2356.06  2407.13  4346.26
                             4455.52  4551.82  4591.32  4626.95  4647.73
                             4667.63  4669.60  5075.23  5168.28

 Zero-point correction=                           0.206376 (Hartree/Particle)
 Thermal correction to Energy=                    0.225236
 Thermal correction to Enthalpy=                  0.226180
 Thermal correction to Gibbs Free Energy=         0.158609
 Sum of electronic and zero-point Energies=          -2530.307095
 Sum of electronic and thermal Energies=             -2530.288234
 Sum of electronic and thermal Enthalpies=           -2530.287290
 Sum of electronic and thermal Free Energies=        -2530.354862

                     E (Thermal)             CV                S
                      KCal/Mol        Cal/Mol-Kelvin    Cal/Mol-Kelvin
 Total                  141.338             71.265            142.216
 Electronic               0.000              0.000              0.000
 Translational            0.889              2.981             43.519
 Rotational               0.889              2.981             34.985
 Vibrational            139.560             65.303             63.712
 Vibration     1          0.593              1.984              6.008
 Vibration     2          0.596              1.976              4.693
 Vibration     3          0.597              1.972              4.358
 Vibration     4          0.600              1.962              3.880
 Vibration     5          0.603              1.953              3.564
 Vibration     6          0.606              1.941              3.275
 Vibration     7          0.611              1.927              3.008
 Vibration     8          0.623              1.887              2.502
 Vibration     9          0.631              1.860              2.275
 Vibration    10          0.634              1.851              2.210
 Vibration    11          0.638              1.840              2.132
 Vibration    12          0.647              1.812              1.964
 Vibration    13          0.659              1.773              1.775
 Vibration    14          0.664              1.760              1.717
 Vibration    15          0.684              1.699              1.495
 Vibration    16          0.688              1.687              1.457
 Vibration    17          0.702              1.646              1.338
 Vibration    18          0.714              1.612              1.251
 Vibration    19          0.728              1.572              1.159
 Vibration    20          0.748              1.517              1.046
 Vibration    21          0.758              1.492              1.001
 Vibration    22          0.763              1.477              0.975
 Vibration    23          0.781              1.431              0.899
 Vibration    24          0.802              1.379              0.820
 Vibration    25          0.831              1.306              0.724
 Vibration    26          0.846              1.273              0.684
 Vibration    27          0.858              1.245              0.652
 Vibration    28          0.862              1.234              0.641
 Vibration    29          0.873              1.211              0.616
 Vibration    30          0.886              1.181              0.584
 Vibration    31          0.911              1.127              0.532
 Vibration    32          0.952              1.045              0.460
 Vibration    33          0.977              0.996              0.421

 Optimization completed.
    -- Stationary point found.
 Normal termination of Gaussian 16 at Wed Jun 29 17:27:44 2022.
