 Gaussian 16, Revision C.01,
 Gaussian 16:  ES64L-G16RevC.01  3-Jul-2019

 -----------------------------------------------------
 #m062X/gen 6D OPT Freq=noraman SCRF=(SMD,Solvent=h2o)
 -----------------------------------------------------

 ---------------
 A.29.smd.a1.smd
 ---------------
 Symbolic Z-matrix:
 Charge = -1 Multiplicity = 1

 SCF Done:  E(RM062X) =  -1866.74082545     A.U. after   17 cycles
 Optimization completed.
    -- Stationary point found.
 Normal termination of Gaussian 16 at Wed Jun 29 17:04:49 2022.

 ------------------------------------------------------------------
 #N Geom=AllCheck Guess=TCheck SCRF=Check GenChk RM062X/ChkBas Freq
 ------------------------------------------------------------------

 Structure from the checkpoint file:  "/jobfs/48773866.gadi-pbs/Gau-617291.chk"
 ---------------
 A.29.smd.a1.smd
 ---------------
 Charge = -1 Multiplicity = 1

                         Standard orientation:
 ---------------------------------------------------------------------
 Center     Atomic      Atomic             Coordinates (Angstroms)
 Number     Number       Type             X           Y           Z
 ---------------------------------------------------------------------
      1          6           0        2.655338   -0.251377   -0.076565
      2          6           0        2.795070    1.145808   -0.084012
      3         17           0        4.373295    1.892865   -0.042675
      4          6           0        1.702220    1.994921   -0.107527
      5          1           0        1.838201    3.072228   -0.105503
      6          6           0        0.409298    1.452835   -0.115036
      7          6           0        0.250928    0.056677   -0.127978
      8          6           0       -1.105955   -0.523945   -0.281260
      9          6           0        1.370081   -0.774362   -0.110038
     10          1           0        1.231303   -1.850120   -0.127620
     11         16           0        4.063207   -1.389300    0.000275
     12          8           0        3.421151   -2.728393    0.008059
     13          8           0        4.827167   -1.096272   -1.248435
     14          7           0        4.858297   -1.195415    1.328987
     15          1           0        5.440067   -0.360260    1.236090
     16          7           0       -0.720919    2.245347   -0.154512
     17          6           0       -1.883931    1.660087    0.501950
     18          7           0       -2.138129    0.354593   -0.146220
     19          6           0       -3.069342    2.592416    0.395681
     20          1           0       -0.563158    3.213123    0.117391
     21          1           0       -1.650774    1.472586    1.561922
     22          1           0       -3.924196    2.200017    0.951697
     23          1           0       -3.356167    2.741223   -0.649636
     24          8           0       -1.280783   -1.715947   -0.569107
     25          6           0       -3.480281   -0.154321   -0.242991
     26          6           0       -4.087179   -0.731126    0.882139
     27          6           0       -3.365144   -0.810114    2.200245
     28          6           0       -5.392917   -1.211109    0.741772
     29          1           0       -5.880617   -1.662637    1.602279
     30          6           0       -6.071408   -1.122557   -0.474044
     31          1           0       -7.085493   -1.503316   -0.554743
     32          6           0       -5.448235   -0.550301   -1.581907
     33          1           0       -5.968577   -0.479548   -2.532203
     34          6           0       -4.145822   -0.066993   -1.463157
     35          1           0       -3.638924    0.382634   -2.312343
     36          1           0       -2.793190    3.557002    0.832141
     37          1           0       -3.899973   -1.467145    2.890638
     38          1           0       -3.291755    0.180060    2.666108
     39          1           0       -2.345416   -1.191765    2.079321
 ---------------------------------------------------------------------

 SCF Done:  E(RM062X) =  -1866.74082545     A.U. after    1 cycles

 The electronic state is 1-A.
 Alpha  occ. eigenvalues -- -102.68435 -90.13900 -19.63192 -19.62118 -19.62014
 Alpha  occ. eigenvalues --  -14.80584 -14.78773 -14.71935 -10.67425 -10.63951
 Alpha  occ. eigenvalues --  -10.63244 -10.61949 -10.59441 -10.58504 -10.57813
 Alpha  occ. eigenvalues --  -10.57328 -10.57220 -10.56809 -10.55767 -10.55599
 Alpha  occ. eigenvalues --  -10.55437 -10.55365 -10.54113 -10.53877  -9.83080
 Alpha  occ. eigenvalues --   -8.44715  -7.55480  -7.54829  -7.54797  -6.36959
 Alpha  occ. eigenvalues --   -6.36869  -6.36796  -1.21017  -1.17818  -1.09873
 Alpha  occ. eigenvalues --   -1.09349  -1.04106  -1.00718  -0.96186  -0.96090
 Alpha  occ. eigenvalues --   -0.94965  -0.88342  -0.87532  -0.86666  -0.84267
 Alpha  occ. eigenvalues --   -0.82861  -0.78102  -0.74067  -0.73421  -0.72114
 Alpha  occ. eigenvalues --   -0.69594  -0.68510  -0.67095  -0.62997  -0.62656
 Alpha  occ. eigenvalues --   -0.60957  -0.58910  -0.58487  -0.56351  -0.55478
 Alpha  occ. eigenvalues --   -0.55000  -0.54261  -0.53593  -0.52138  -0.51656
 Alpha  occ. eigenvalues --   -0.51325  -0.50874  -0.49593  -0.49198  -0.48954
 Alpha  occ. eigenvalues --   -0.47639  -0.47394  -0.46099  -0.45482  -0.44949
 Alpha  occ. eigenvalues --   -0.44416  -0.43361  -0.42701  -0.42623  -0.42055
 Alpha  occ. eigenvalues --   -0.40840  -0.40486  -0.39637  -0.39007  -0.38007
 Alpha  occ. eigenvalues --   -0.37439  -0.35802  -0.35207  -0.33125  -0.32908
 Alpha  occ. eigenvalues --   -0.31631  -0.31108  -0.30666  -0.30053  -0.27176
 Alpha virt. eigenvalues --   -0.02688   0.00695   0.01224   0.01338   0.01693
 Alpha virt. eigenvalues --    0.02322   0.02812   0.03055   0.03282   0.04111
 Alpha virt. eigenvalues --    0.04351   0.04704   0.05182   0.05322   0.05635

 Mulliken charges:
               1
     1  C   -2.658732
     2  C    1.350003
     3  Cl   0.202526
     4  C   -1.127688
     5  H    0.281340
     6  C   -0.137603
     7  C    1.518642
     8  C    0.664526
     9  C   -0.487106
    10  H    0.292596
    11  S    1.523818
    12  O   -0.785511
    13  O   -0.647494
    14  N   -0.898192
    15  H    0.401068
    16  N   -0.420353
    17  C   -0.045275
    18  N   -0.019414
    19  C   -0.642390
    20  H    0.489390
    21  H    0.281356
    22  H    0.271752
    23  H    0.268521
    24  O   -0.577190
    25  C   -1.761739
    26  C    1.025007
    27  C   -0.673019
    28  C   -0.855310
    29  H    0.247681
    30  C    0.115203
    31  H    0.247495
    32  C   -0.307946
    33  H    0.251164
    34  C    0.325452
    35  H    0.262779
    36  H    0.253824
    37  H    0.244065
    38  H    0.267154
    39  H    0.259600
 Sum of Mulliken charges =  -1.00000

 Dipole moment (field-independent basis, Debye):
    X=            -25.4831    Y=             18.3103    Z=              3.6069  Tot=             31.5858
 Quadrupole moment (field-independent basis, Debye-Ang):
   XX=           -242.9450   YY=           -173.9870   ZZ=           -163.3673
   XY=             37.6227   XZ=             -3.6385   YZ=              1.4057

  Exact polarizability:     458.747      10.659     347.260      15.254      -8.797     297.349
 Approx polarizability:     362.201      15.797     300.985      11.262      -8.983     262.125

                      1                      2                      3
                      A                      A                      A
 Frequencies --     23.9992                28.5982                54.1076
 Red. masses --      4.3406                 6.7202                 5.5215
 Frc consts  --      0.0015                 0.0032                 0.0095
 IR Inten    --      1.5239                 1.5686                 2.3194

                      4                      5                      6
                      A                      A                      A
 Frequencies --     58.2688                69.6589               101.2024
 Red. masses --      6.3812                 8.0418                 4.9311
 Frc consts  --      0.0128                 0.0230                 0.0298
 IR Inten    --      3.4353                 1.3533                 3.6574

                      7                      8                      9
                      A                      A                      A
 Frequencies --    128.6233               131.7797               137.9373
 Red. masses --      4.7756                 6.4712                 5.9963
 Frc consts  --      0.0466                 0.0662                 0.0672
 IR Inten    --      1.0202                 2.6796                 5.0944

                     10                     11                     12
                      A                      A                      A
 Frequencies --    169.4304               188.2061               198.3346
 Red. masses --      2.2973                 5.6892                 3.2397
 Frc consts  --      0.0389                 0.1187                 0.0751
 IR Inten    --      5.2445                 1.6021                 2.1023

                     13                     14                     15
                      A                      A                      A
 Frequencies --    209.9721               237.7089               245.5120
 Red. masses --      2.3585                 5.3146                 4.5665
 Frc consts  --      0.0613                 0.1769                 0.1622
 IR Inten    --      0.4134                 6.3710                 7.5716

                     16                     17                     18
                      A                      A                      A
 Frequencies --    251.7266               276.8280               286.4200
 Red. masses --      4.3739                 5.3755                 1.4184
 Frc consts  --      0.1633                 0.2427                 0.0686
 IR Inten    --      1.0413                23.9462                 0.9700

                     19                     20                     21
                      A                      A                      A
 Frequencies --    315.1115               325.6041               346.3041
 Red. masses --      2.4547                 5.6221                 3.8109
 Frc consts  --      0.1436                 0.3512                 0.2693
 IR Inten    --      1.1969                 3.0387                19.9018

                     22                     23                     24
                      A                      A                      A
 Frequencies --    379.3822               401.9693               414.4461
 Red. masses --      2.9495                 6.1630                 3.1871
 Frc consts  --      0.2501                 0.5867                 0.3225
 IR Inten    --     85.6142                 4.7104                34.0470

                     25                     26                     27
                      A                      A                      A
 Frequencies --    441.4903               457.4168               467.8399
 Red. masses --      3.7800                 3.4663                 3.6800
 Frc consts  --      0.4341                 0.4273                 0.4746
 IR Inten    --      4.2803                16.0351                 4.5452

                     28                     29                     30
                      A                      A                      A
 Frequencies --    471.1965               495.3317               506.9369
 Red. masses --      3.1631                 2.0455                 2.9337
 Frc consts  --      0.4138                 0.2957                 0.4442
 IR Inten    --     14.1668               277.9531                41.7822

                     31                     32                     33
                      A                      A                      A
 Frequencies --    514.8815               532.5759               552.1638
 Red. masses --      9.4828                 5.9031                 4.5487
 Frc consts  --      1.4812                 0.9865                 0.8171
 IR Inten    --     72.7211                33.4711                 7.8965

                     34                     35                     36
                      A                      A                      A
 Frequencies --    562.7304               574.1353               577.1873
 Red. masses --      4.1835                 6.6364                 3.0109
 Frc consts  --      0.7805                 1.2889                 0.5910
 IR Inten    --    179.8702               281.1501               139.8798

                     37                     38                     39
                      A                      A                      A
 Frequencies --    618.7226               655.1521               658.5339
 Red. masses --      4.2496                 5.2556                 6.9248
 Frc consts  --      0.9585                 1.3291                 1.7694
 IR Inten    --     15.6696                 8.4376                22.0739

                     40                     41                     42
                      A                      A                      A
 Frequencies --    686.5165               712.6968               732.8958
 Red. masses --      6.4687                 4.4831                 4.4700
 Frc consts  --      1.7963                 1.3416                 1.4146
 IR Inten    --     17.8676                10.5841                 4.0937

                     43                     44                     45
                      A                      A                      A
 Frequencies --    744.8753               761.5169               790.4441
 Red. masses --      2.8637                 2.7639                 1.8944
 Frc consts  --      0.9361                 0.9443                 0.6974
 IR Inten    --     48.9213                33.8405                65.8989

                     46                     47                     48
                      A                      A                      A
 Frequencies --    806.8053               811.1791               885.9475
 Red. masses --      4.5007                 4.5468                 1.5304
 Frc consts  --      1.7261                 1.7627                 0.7077
 IR Inten    --     69.7194                 3.8819                58.1761

                     49                     50                     51
                      A                      A                      A
 Frequencies --    890.2564               903.5163               937.1611
 Red. masses --      3.7685                 1.4181                 5.8649
 Frc consts  --      1.7597                 0.6821                 3.0349
 IR Inten    --     19.2995                 1.2486                81.2661

                     52                     53                     54
                      A                      A                      A
 Frequencies --    957.5908               969.1564               984.6888
 Red. masses --      1.4507                 2.2792                 1.9983
 Frc consts  --      0.7838                 1.2613                 1.1416
 IR Inten    --     32.9292                47.8286               172.0665

                     55                     56                     57
                      A                      A                      A
 Frequencies --    990.2715              1017.7094              1027.9194
 Red. masses --      2.3654                 1.5340                 1.3110
 Frc consts  --      1.3667                 0.9361                 0.8161
 IR Inten    --    256.8245                 1.9659                 0.0356

                     58                     59                     60
                      A                      A                      A
 Frequencies --   1034.4606              1067.1229              1075.1121
 Red. masses --      2.3241                 1.5657                 4.2478
 Frc consts  --      1.4653                 1.0504                 2.8928
 IR Inten    --    173.8746                 9.4644               634.1401

                     61                     62                     63
                      A                      A                      A
 Frequencies --   1077.2825              1106.0023              1126.8672
 Red. masses --      2.0764                 2.5529                 2.5605
 Frc consts  --      1.4197                 1.8399                 1.9157
 IR Inten    --     22.3661                38.3428               318.1970

                     64                     65                     66
                      A                      A                      A
 Frequencies --   1142.5621              1148.8296              1161.3194
 Red. masses --      1.6167                 1.8302                 2.4097
 Frc consts  --      1.2435                 1.4232                 1.9148
 IR Inten    --     15.0886                23.1940                13.6000

                     67                     68                     69
                      A                      A                      A
 Frequencies --   1172.3958              1191.7563              1200.0453
 Red. masses --      1.0960                 3.3723                 2.9093
 Frc consts  --      0.8876                 2.8219                 2.4685
 IR Inten    --      0.8832               235.8121               103.3589

                     70                     71                     72
                      A                      A                      A
 Frequencies --   1214.3877              1239.2231              1262.5954
 Red. masses --      3.8864                 2.9888                 1.3356
 Frc consts  --      3.3769                 2.7043                 1.2544
 IR Inten    --    133.2726                71.9925                37.9691

                     73                     74                     75
                      A                      A                      A
 Frequencies --   1282.9301              1297.6741              1311.5399
 Red. masses --      3.6267                 2.8943                 1.5088
 Frc consts  --      3.5169                 2.8716                 1.5292
 IR Inten    --     17.6019               172.7046                 5.1066

                     76                     77                     78
                      A                      A                      A
 Frequencies --   1329.6973              1347.0921              1370.3815
 Red. masses --      6.5638                 3.5181                 1.6432
 Frc consts  --      6.8377                 3.7614                 1.8182
 IR Inten    --     11.2758               127.2437                72.3924

                     79                     80                     81
                      A                      A                      A
 Frequencies --   1386.1727              1420.1530              1424.6890
 Red. masses --      2.0695                 1.4811                 1.2669
 Frc consts  --      2.3429                 1.7600                 1.5151
 IR Inten    --     21.9921                57.9308                 3.0537

                     82                     83                     84
                      A                      A                      A
 Frequencies --   1448.0478              1459.8878              1483.3774
 Red. masses --      1.9715                 1.7952                 1.3834
 Frc consts  --      2.4356                 2.2542                 1.7935
 IR Inten    --     64.5888               390.5092                 2.7847

                     85                     86                     87
                      A                      A                      A
 Frequencies --   1494.9556              1496.7625              1500.6096
 Red. masses --      1.1316                 1.0958                 1.2499
 Frc consts  --      1.4900                 1.4464                 1.6583
 IR Inten    --     28.2947                 3.1533               221.9037

                     88                     89                     90
                      A                      A                      A
 Frequencies --   1509.5618              1516.3665              1536.2977
 Red. masses --      1.7014                 2.2897                 2.8663
 Frc consts  --      2.2844                 3.1020                 3.9858
 IR Inten    --     40.6787                62.1752               318.9362

                     91                     92                     93
                      A                      A                      A
 Frequencies --   1546.7718              1641.2840              1659.3428
 Red. masses --      3.0324                 7.6172                 6.7143
 Frc consts  --      4.2745                12.0897                10.8924
 IR Inten    --    257.7878                18.4040               103.8947

                     94                     95                     96
                      A                      A                      A
 Frequencies --   1670.3215              1682.5471              1694.9665
 Red. masses --      7.6528                 7.1816                 8.0787
 Frc consts  --     12.5797                11.9786                13.6745
 IR Inten    --    695.4381               454.1986               478.3806

                     97                     98                     99
                      A                      A                      A
 Frequencies --   3038.4928              3076.7248              3095.5480
 Red. masses --      1.0833                 1.0390                 1.0362
 Frc consts  --      5.8927                 5.7949                 5.8503
 IR Inten    --     80.2842                27.3963                13.9374

                    100                    101                    102
                      A                      A                      A
 Frequencies --   3138.3088              3171.1257              3174.3229
 Red. masses --      1.1000                 1.1018                 1.1038
 Frc consts  --      6.3829                 6.5280                 6.5533
 IR Inten    --     17.2254                21.6797                21.1383

                    103                    104                    105
                      A                      A                      A
 Frequencies --   3184.9758              3217.9323              3229.5871
 Red. masses --      1.1038                 1.0892                 1.0894
 Frc consts  --      6.5968                 6.6456                 6.6945
 IR Inten    --     17.3341                 7.5257                 1.9853

                    106                    107                    108
                      A                      A                      A
 Frequencies --   3236.6365              3240.2223              3247.5816
 Red. masses --      1.0940                 1.0938                 1.0985
 Frc consts  --      6.7521                 6.7660                 6.8261
 IR Inten    --     17.5131                 1.2502                13.7429

                    109                    110                    111
                      A                      A                      A
 Frequencies --   3263.0489              3525.5638              3573.3043
 Red. masses --      1.0904                 1.0733                 1.0773
 Frc consts  --      6.8401                 7.8600                 8.1043
 IR Inten    --     10.3712                39.9784               129.0019

 - Thermochemistry -
 -------------------
 Temperature   298.150 Kelvin.  Pressure   1.00000 Atm.
 Atom     1 has atomic number  6 and mass  12.00000

 Molecular mass:   364.05227 amu.
 Principal axes and moments of inertia in atomic units:
                           1         2         3
     Eigenvalues --  3661.61428********************
           X            1.00000  -0.00251  -0.00173
           Y            0.00250   0.99999  -0.00372
           Z            0.00174   0.00372   0.99999
 This molecule is an asymmetric top.
 Rotational symmetry number  1.
 Warning -- assumption of classical behavior for rotation
           may cause significant error
 Rotational temperatures (Kelvin)      0.02365     0.00495     0.00445
 Rotational constants (GHZ):           0.49288     0.10315     0.09268
 Zero-point vibrational energy     776516.0 (Joules/Mol)
                                  185.59178 (Kcal/Mol)
 Warning -- explicit consideration of  37 degrees of freedom as
           vibrations may cause significant error
 Vibrational temperatures:     34.53    41.15    77.85    83.84   100.22
          (Kelvin)            145.61   185.06   189.60   198.46   243.77
                              270.79   285.36   302.10   342.01   353.24
                              362.18   398.29   412.09   453.38   468.47
                              498.25   545.85   578.34   596.30   635.21
                              658.12   673.12   677.95   712.67   729.37
                              740.80   766.26   794.44   809.64   826.05
                              830.44   890.20   942.62   947.48   987.74
                             1025.41  1054.47  1071.71  1095.65  1137.27
                             1160.81  1167.11  1274.68  1280.88  1299.96
                             1348.37  1377.76  1394.40  1416.75  1424.78
                             1464.26  1478.95  1488.36  1535.35  1546.85
                             1549.97  1591.29  1621.31  1643.89  1652.91
                             1670.88  1686.82  1714.67  1726.60  1747.23
                             1782.97  1816.59  1845.85  1867.06  1887.01
                             1913.14  1938.17  1971.67  1994.39  2043.28
                             2049.81  2083.42  2100.45  2134.25  2150.91
                             2153.51  2159.04  2171.92  2181.71  2210.39
                             2225.46  2361.44  2387.42  2403.22  2420.81
                             2438.68  4371.71  4426.72  4453.80  4515.33
                             4562.54  4567.14  4582.47  4629.89  4646.66
                             4656.80  4661.96  4672.55  4694.80  5072.50
                             5141.19

 Zero-point correction=                           0.295759 (Hartree/Particle)
 Thermal correction to Energy=                    0.316978
 Thermal correction to Enthalpy=                  0.317922
 Thermal correction to Gibbs Free Energy=         0.244884
 Sum of electronic and zero-point Energies=          -1866.445066
 Sum of electronic and thermal Energies=             -1866.423848
 Sum of electronic and thermal Enthalpies=           -1866.422904
 Sum of electronic and thermal Free Energies=        -1866.495941

                     E (Thermal)             CV                S
                      KCal/Mol        Cal/Mol-Kelvin    Cal/Mol-Kelvin
 Total                  198.906             82.360            153.720
 Electronic               0.000              0.000              0.000
 Translational            0.889              2.981             43.570
 Rotational               0.889              2.981             35.477
 Vibrational            197.129             76.399             74.674
 Vibration     1          0.593              1.985              6.272
 Vibration     2          0.593              1.984              5.924
 Vibration     3          0.596              1.976              4.661
 Vibration     4          0.596              1.974              4.515
 Vibration     5          0.598              1.969              4.163
 Vibration     6          0.604              1.948              3.431
 Vibration     7          0.611              1.925              2.967
 Vibration     8          0.612              1.922              2.920
 Vibration     9          0.614              1.915              2.832
 Vibration    10          0.625              1.880              2.442
 Vibration    11          0.633              1.856              2.245
 Vibration    12          0.637              1.842              2.148
 Vibration    13          0.642              1.826              2.044
 Vibration    14          0.656              1.783              1.820
 Vibration    15          0.660              1.770              1.763
 Vibration    16          0.664              1.760              1.718
 Vibration    17          0.678              1.716              1.553
 Vibration    18          0.684              1.699              1.495
 Vibration    19          0.702              1.645              1.335
 Vibration    20          0.710              1.624              1.282
 Vibration    21          0.724              1.583              1.183
 Vibration    22          0.749              1.514              1.042
 Vibration    23          0.768              1.466              0.955
 Vibration    24          0.778              1.439              0.911
 Vibration    25          0.801              1.380              0.822
 Vibration    26          0.816              1.344              0.774
 Vibration    27          0.825              1.321              0.744
 Vibration    28          0.828              1.314              0.734
 Vibration    29          0.851              1.260              0.670
 Vibration    30          0.862              1.235              0.641
 Vibration    31          0.870              1.217              0.622
 Vibration    32          0.888              1.178              0.581
 Vibration    33          0.908              1.135              0.540
 Vibration    34          0.918              1.112              0.518
 Vibration    35          0.930              1.087              0.496
 Vibration    36          0.934              1.081              0.491
 Vibration    37          0.979              0.992              0.419

                           ! Non-Optimized Parameters !
 Normal termination of Gaussian 16 at Wed Jun 29 17:38:33 2022.
