 Gaussian 16, Revision C.01,
 Gaussian 16:  ES64L-G16RevC.01  3-Jul-2019

 -----------------------------------------------------
 #m062X/gen 6D OPT Freq=noraman SCRF=(SMD,Solvent=h2o)
 -----------------------------------------------------

 -----
 a1 b2
 -----
 Symbolic Z-matrix:
 Charge = -1 Multiplicity = 1

 SCF Done:  E(RM062X) =  -2214.19914553     A.U. after   17 cycles
 SCF Done:  E(RM062X) =  -2214.20325796     A.U. after   14 cycles
 SCF Done:  E(RM062X) =  -2214.20425266     A.U. after   14 cycles
 SCF Done:  E(RM062X) =  -2214.20521921     A.U. after   16 cycles
 SCF Done:  E(RM062X) =  -2214.20615831     A.U. after   14 cycles
 SCF Done:  E(RM062X) =  -2214.20622148     A.U. after   14 cycles
 SCF Done:  E(RM062X) =  -2214.20693599     A.U. after   15 cycles
 SCF Done:  E(RM062X) =  -2214.20728340     A.U. after   15 cycles
 SCF Done:  E(RM062X) =  -2214.20766273     A.U. after   17 cycles
 SCF Done:  E(RM062X) =  -2214.20641318     A.U. after   15 cycles
 SCF Done:  E(RM062X) =  -2214.20810360     A.U. after   14 cycles
 SCF Done:  E(RM062X) =  -2214.20803721     A.U. after   14 cycles
 SCF Done:  E(RM062X) =  -2214.20821642     A.U. after   13 cycles
 SCF Done:  E(RM062X) =  -2214.20821575     A.U. after   13 cycles
 SCF Done:  E(RM062X) =  -2214.20825573     A.U. after   13 cycles
 SCF Done:  E(RM062X) =  -2214.20825804     A.U. after   11 cycles
 SCF Done:  E(RM062X) =  -2214.20825752     A.U. after   11 cycles
 Optimization completed.
    -- Stationary point found.
 Normal termination of Gaussian 16 at Thu May 19 14:47:00 2022.

 ------------------------------------------------------------------
 #N Geom=AllCheck Guess=TCheck SCRF=Check GenChk RM062X/ChkBas Freq
 ------------------------------------------------------------------

 Structure from the checkpoint file:  "/jobfs/40643964.gadi-pbs/Gau-2412834.chk"
 -----
 a1 b2
 -----
 Charge = -1 Multiplicity = 1

                         Standard orientation:
 ---------------------------------------------------------------------
 Center     Atomic      Atomic             Coordinates (Angstroms)
 Number     Number       Type             X           Y           Z
 ---------------------------------------------------------------------
      1          6           0        0.397077   -0.068295   -0.015642
      2          6           0       -0.292992    1.157576   -0.002816
      3         17           0        0.541276    2.693514    0.045816
      4          6           0       -1.678675    1.252757   -0.004868
      5          1           0       -2.163281    2.222913   -0.001694
      6          6           0       -2.418169    0.079615   -0.005651
      7         17           0       -4.155682    0.165263   -0.014027
      8          6           0       -1.798470   -1.157300    0.010830
      9          1           0       -2.382268   -2.071162    0.024203
     10          6           0       -0.404175   -1.220413    0.011485
     11         17           0        0.220644   -2.848970    0.060707
     12         16           0        2.245095   -0.037599   -0.039698
     13          8           0        2.676828   -1.444108   -0.149918
     14          8           0        2.514773    0.762132   -1.265290
     15          7           0        2.760309    0.557736    1.302074
     16          1           0        2.635421    1.571114    1.287331
 ---------------------------------------------------------------------

 SCF Done:  E(RM062X) =  -2214.20825752     A.U. after    2 cycles

 The electronic state is 1-A.
 Alpha  occ. eigenvalues -- -102.68650-102.68604-102.67942 -90.14577 -19.62352
 Alpha  occ. eigenvalues --  -19.62333 -14.72399 -10.64578 -10.64564 -10.63851
 Alpha  occ. eigenvalues --  -10.60737 -10.58549 -10.58445  -9.83320  -9.83258
 Alpha  occ. eigenvalues --   -9.82583  -8.45335  -7.55726  -7.55668  -7.55061
 Alpha  occ. eigenvalues --   -7.55037  -7.55004  -7.55000  -7.54965  -7.54331
 Alpha  occ. eigenvalues --   -7.54271  -6.37569  -6.37500  -6.37424  -1.21708
 Alpha  occ. eigenvalues --   -1.09912  -1.03677  -0.99095  -0.98642  -0.96676
 Alpha  occ. eigenvalues --   -0.91890  -0.85623  -0.84402  -0.72597  -0.70414
 Alpha  occ. eigenvalues --   -0.67691  -0.60949  -0.58882  -0.56884  -0.55524
 Alpha  occ. eigenvalues --   -0.53652  -0.52551  -0.51281  -0.50939  -0.47577
 Alpha  occ. eigenvalues --   -0.45685  -0.44710  -0.44216  -0.43260  -0.40579
 Alpha  occ. eigenvalues --   -0.39991  -0.39505  -0.38875  -0.37925  -0.36170
 Alpha  occ. eigenvalues --   -0.35535  -0.33431  -0.32750  -0.31278  -0.29509
 Alpha virt. eigenvalues --   -0.01421  -0.00945   0.00850   0.01898   0.02766
 Alpha virt. eigenvalues --    0.02844   0.04342   0.04702   0.05262   0.05604
 Alpha virt. eigenvalues --    0.06938   0.07689   0.07888   0.08532   0.08768

 Mulliken charges:
               1
     1  C   -2.542170
     2  C    0.897016
     3  Cl   0.208852
     4  C   -0.037849
     5  H    0.296140
     6  C   -0.065195
     7  Cl   0.220943
     8  C   -0.109394
     9  H    0.290443
    10  C    0.212162
    11  Cl   0.226494
    12  S    1.324848
    13  O   -0.735945
    14  O   -0.683301
    15  N   -0.907778
    16  H    0.404736
 Sum of Mulliken charges =  -1.00000

 Dipole moment (field-independent basis, Debye):
    X=            -14.8727    Y=              2.2795    Z=              0.5876  Tot=             15.0579
 Quadrupole moment (field-independent basis, Debye-Ang):
   XX=           -148.1083   YY=           -108.7079   ZZ=           -116.8670
   XY=              5.6967   XZ=              0.5599   YZ=              2.9639

  Exact polarizability:     247.438       2.559     222.860       5.645       0.797     131.066
 Approx polarizability:     206.421       1.354     204.531       4.308       0.252     122.915

                      1                      2                      3
                      A                      A                      A
 Frequencies --     51.8523                74.2046               144.7371
 Red. masses --     22.2052                 9.1368                12.9090
 Frc consts  --      0.0352                 0.0296                 0.1593
 IR Inten    --      5.1950                 0.1140                 1.3832

                      4                      5                      6
                      A                      A                      A
 Frequencies --    175.3136               190.9799               207.8029
 Red. masses --     14.8936                 4.8297                19.6276
 Frc consts  --      0.2697                 0.1038                 0.4994
 IR Inten    --      5.5122                 0.1085                 1.0166

                      7                      8                      9
                      A                      A                      A
 Frequencies --    213.1023               226.7209               241.8328
 Red. masses --     10.6019                13.8638                20.9213
 Frc consts  --      0.2837                 0.4199                 0.7209
 IR Inten    --      0.1791                 0.3535                 1.6534

                     10                     11                     12
                      A                      A                      A
 Frequencies --    259.7300               379.9835               389.4512
 Red. masses --      6.1615                26.1612                 6.0883
 Frc consts  --      0.2449                 2.2255                 0.5441
 IR Inten    --     25.1210                 0.7747                22.4478

                     13                     14                     15
                      A                      A                      A
 Frequencies --    401.8195               448.0524               489.4017
 Red. masses --      2.5857                 8.2401                 8.0726
 Frc consts  --      0.2460                 0.9746                 1.1392
 IR Inten    --    114.7280                11.5113               186.2504

                     16                     17                     18
                      A                      A                      A
 Frequencies --    502.8940               516.2296               541.6246
 Red. masses --      2.5355                 7.1022                 5.4010
 Frc consts  --      0.3778                 1.1151                 0.9335
 IR Inten    --     88.0443                46.9794                 2.0519

                     19                     20                     21
                      A                      A                      A
 Frequencies --    550.3335               585.4492               607.1279
 Red. masses --      6.5126                 4.3080                12.6983
 Frc consts  --      1.1621                 0.8700                 2.7578
 IR Inten    --     10.9448                39.8092               231.5922

                     22                     23                     24
                      A                      A                      A
 Frequencies --    750.4912               803.8722               841.9860
 Red. masses --      5.2958                11.5762                11.2919
 Frc consts  --      1.7574                 4.4075                 4.7166
 IR Inten    --      1.4070               117.3946               144.9352

                     25                     26                     27
                      A                      A                      A
 Frequencies --    896.6665               912.2801               963.9371
 Red. masses --      1.4960                 1.3703                13.3300
 Frc consts  --      0.7086                 0.6719                 7.2976
 IR Inten    --     60.5269                 4.3639               392.7626

                     28                     29                     30
                      A                      A                      A
 Frequencies --   1057.7531              1088.0059              1133.9056
 Red. masses --      6.8624                 2.5712                 2.7245
 Frc consts  --      4.5237                 1.7933                 2.0639
 IR Inten    --    140.8151               517.3439               285.9859

                     31                     32                     33
                      A                      A                      A
 Frequencies --   1160.2254              1175.2696              1214.8742
 Red. masses --      3.7653                 2.0652                 3.5772
 Frc consts  --      2.9863                 1.6807                 3.1107
 IR Inten    --     17.0857                13.8263               265.5548

                     34                     35                     36
                      A                      A                      A
 Frequencies --   1236.0824              1289.4389              1414.9322
 Red. masses --      1.8199                11.0467                 2.9656
 Frc consts  --      1.6383                10.8214                 3.4981
 IR Inten    --    230.1722                38.6024               147.9316

                     37                     38                     39
                      A                      A                      A
 Frequencies --   1457.5209              1623.3220              1646.0882
 Red. masses --      3.2748                 9.4323                 6.9947
 Frc consts  --      4.0988                14.6446                11.1668
 IR Inten    --     26.9267               157.9013               190.7141

                     40                     41                     42
                      A                      A                      A
 Frequencies --   3259.4712              3262.7130              3538.2745
 Red. masses --      1.0949                 1.0942                 1.0732
 Frc consts  --      6.8535                 6.8630                 7.9162
 IR Inten    --      9.0523                 8.7012                44.8165

 - Thermochemistry -
 -------------------
 Temperature   298.150 Kelvin.  Pressure   1.00000 Atm.
 Atom     1 has atomic number  6 and mass  12.00000

 Molecular mass:   257.89501 amu.
 Principal axes and moments of inertia in atomic units:
                           1         2         3
     Eigenvalues --  2563.683034700.340076895.31857
           X            0.99997   0.00681   0.00264
           Y           -0.00682   0.99997   0.00328
           Z           -0.00262  -0.00330   0.99999
 This molecule is an asymmetric top.
 Rotational symmetry number  1.
 Warning -- assumption of classical behavior for rotation
           may cause significant error
 Rotational temperatures (Kelvin)      0.03378     0.01843     0.01256
 Rotational constants (GHZ):           0.70396     0.38396     0.26173
 Zero-point vibrational energy     226846.4 (Joules/Mol)
                                   54.21759 (Kcal/Mol)
 Warning -- explicit consideration of  21 degrees of freedom as
           vibrations may cause significant error
 Vibrational temperatures:     74.60   106.76   208.24   252.24   274.78
          (Kelvin)            298.98   306.61   326.20   347.94   373.69
                              546.71   560.33   578.13   644.65   704.14
                              723.55   742.74   779.28   791.81   842.33
                              873.52  1079.79  1156.59  1211.43  1290.10
                             1312.57  1386.89  1521.87  1565.40  1631.44
                             1669.31  1690.95  1747.93  1778.45  1855.22
                             2035.77  2097.05  2335.60  2368.35  4689.65
                             4694.32  5090.79

 Zero-point correction=                           0.086401 (Hartree/Particle)
 Thermal correction to Energy=                    0.098418
 Thermal correction to Enthalpy=                  0.099362
 Thermal correction to Gibbs Free Energy=         0.047047
 Sum of electronic and zero-point Energies=          -2214.121856
 Sum of electronic and thermal Energies=             -2214.109839
 Sum of electronic and thermal Enthalpies=           -2214.108895
 Sum of electronic and thermal Free Energies=        -2214.161210

                     E (Thermal)             CV                S
                      KCal/Mol        Cal/Mol-Kelvin    Cal/Mol-Kelvin
 Total                   61.758             43.952            110.107
 Electronic               0.000              0.000              0.000
 Translational            0.889              2.981             42.542
 Rotational               0.889              2.981             32.785
 Vibrational             59.981             37.991             34.780
 Vibration     1          0.596              1.977              4.745
 Vibration     2          0.599              1.966              4.039
 Vibration     3          0.616              1.908              2.740
 Vibration     4          0.627              1.873              2.378
 Vibration     5          0.634              1.852              2.218
 Vibration     6          0.641              1.829              2.063
 Vibration     7          0.644              1.821              2.017
 Vibration     8          0.650              1.800              1.905
 Vibration     9          0.658              1.776              1.789
 Vibration    10          0.668              1.746              1.664
 Vibration    11          0.750              1.513              1.039
 Vibration    12          0.757              1.493              1.002
 Vibration    13          0.767              1.466              0.956
 Vibration    14          0.807              1.365              0.802
 Vibration    15          0.845              1.274              0.685
 Vibration    16          0.858              1.244              0.651
 Vibration    17          0.871              1.214              0.619
 Vibration    18          0.897              1.158              0.562
 Vibration    19          0.906              1.139              0.543
 Vibration    20          0.942              1.063              0.475
 Vibration    21          0.966              1.017              0.438

 Optimization completed.
    -- Stationary point found.
 Normal termination of Gaussian 16 at Thu May 19 14:50:43 2022.
