 Gaussian 16, Revision C.01,
 Gaussian 16:  ES64L-G16RevC.01  3-Jul-2019

 -----------------------------------------------------
 #m062X/gen 6D OPT Freq=noraman SCRF=(SMD,Solvent=h2o)
 -----------------------------------------------------

 ---------------
 A.30.smd.a1.smd
 ---------------
 Symbolic Z-matrix:
 Charge = -1 Multiplicity = 1

 SCF Done:  E(RM062X) =  -1869.74645305     A.U. after   16 cycles
 Optimization completed.
    -- Stationary point found.
 Normal termination of Gaussian 16 at Thu Jun 30 18:32:51 2022.

 ------------------------------------------------------------------
 #N Geom=AllCheck Guess=TCheck SCRF=Check GenChk RM062X/ChkBas Freq
 ------------------------------------------------------------------

 Structure from the checkpoint file:  "/jobfs/48967295.gadi-pbs/Gau-963583.chk"
 ---------------
 A.30.smd.a1.smd
 ---------------
 Charge = -1 Multiplicity = 1

                         Standard orientation:
 ---------------------------------------------------------------------
 Center     Atomic      Atomic             Coordinates (Angstroms)
 Number     Number       Type             X           Y           Z
 ---------------------------------------------------------------------
      1          6           0        0.929809   -0.458168   -0.013652
      2          6           0        1.088028    0.946642   -0.001377
      3          6           0        2.441215    1.624062   -0.040998
      4          6           0       -0.007543    1.789266    0.004176
      5          1           0        0.125213    2.866619    0.002482
      6          6           0       -1.325284    1.286279    0.013281
      7          6           0       -1.463784   -0.113177    0.005604
      8         16           0       -3.080164   -0.831768   -0.027347
      9          6           0       -0.359708   -0.963376   -0.009028
     10          1           0       -0.507769   -2.039194   -0.030120
     11         16           0        2.281759   -1.677667    0.027760
     12          8           0        1.609177   -2.941019   -0.369469
     13          8           0        3.245234   -1.164824   -0.986264
     14          7           0        2.835865   -1.837248    1.476047
     15          1           0        3.415325   -1.024519    1.692924
     16          7           0       -2.394331    2.136799   -0.028759
     17          6           0       -3.718680    1.655714    0.316779
     18          7           0       -4.050462    0.450513   -0.443340
     19          8           0       -3.165447   -1.819524   -1.101902
     20          8           0       -3.451022   -1.251269    1.323965
     21          1           0       -2.205385    3.117291    0.152043
     22          9           0        2.366216    2.907381    0.356479
     23          9           0        2.962206    1.647971   -1.279779
     24          9           0        3.344309    1.038830    0.764264
     25          1           0       -3.800960    1.411769    1.381367
     26          1           0       -4.447725    2.425578    0.074185
     27          1           0       -4.004146    0.604977   -1.455140
 ---------------------------------------------------------------------

 SCF Done:  E(RM062X) =  -1869.74645305     A.U. after    1 cycles

 The electronic state is 1-A.
 Alpha  occ. eigenvalues --  -90.18473 -90.14095 -25.31122 -25.30981 -25.30673
 Alpha  occ. eigenvalues --  -19.66732 -19.66461 -19.62237 -19.62149 -14.81311
 Alpha  occ. eigenvalues --  -14.79865 -14.72017 -10.82413 -10.63796 -10.63258
 Alpha  occ. eigenvalues --  -10.61003 -10.60449 -10.59382 -10.59087 -10.58298
 Alpha  occ. eigenvalues --   -8.49502  -8.44900  -6.41707  -6.41672  -6.41561
 Alpha  occ. eigenvalues --   -6.37143  -6.37058  -6.36983  -1.47740  -1.38444
 Alpha  occ. eigenvalues --   -1.38098  -1.26583  -1.21248  -1.14861  -1.10485
 Alpha  occ. eigenvalues --   -1.09602  -1.03577  -0.99338  -0.96335  -0.92014
 Alpha  occ. eigenvalues --   -0.88005  -0.83654  -0.79854  -0.77517  -0.74115
 Alpha  occ. eigenvalues --   -0.71741  -0.70134  -0.69994  -0.68970  -0.66563
 Alpha  occ. eigenvalues --   -0.63793  -0.62360  -0.60651  -0.60155  -0.58304
 Alpha  occ. eigenvalues --   -0.57968  -0.56741  -0.56424  -0.55331  -0.54380
 Alpha  occ. eigenvalues --   -0.54085  -0.53503  -0.53417  -0.52413  -0.51950
 Alpha  occ. eigenvalues --   -0.51464  -0.51225  -0.48669  -0.47440  -0.45982
 Alpha  occ. eigenvalues --   -0.43459  -0.42980  -0.42190  -0.41176  -0.40559
 Alpha  occ. eigenvalues --   -0.40251  -0.39530  -0.37822  -0.37361  -0.35461
 Alpha  occ. eigenvalues --   -0.34348  -0.33336  -0.30993  -0.27349
 Alpha virt. eigenvalues --   -0.02915  -0.00187   0.01251   0.02547   0.02817
 Alpha virt. eigenvalues --    0.03252   0.04071   0.04310   0.04794   0.04859
 Alpha virt. eigenvalues --    0.05804   0.06493   0.06609   0.07250   0.07604

 Mulliken charges:
               1
     1  C   -1.768009
     2  C    0.477162
     3  C    1.697794
     4  C   -1.337202
     5  H    0.291597
     6  C   -0.083618
     7  C    0.282511
     8  S    1.894589
     9  C   -0.335308
    10  H    0.302944
    11  S    1.661084
    12  O   -0.761127
    13  O   -0.695700
    14  N   -0.963227
    15  H    0.416836
    16  N   -0.513194
    17  C   -0.288716
    18  N   -0.864100
    19  O   -0.581935
    20  O   -0.562140
    21  H    0.509234
    22  F   -0.328641
    23  F   -0.255359
    24  F   -0.317015
    25  H    0.288111
    26  H    0.290058
    27  H    0.543373
 Sum of Mulliken charges =  -1.00000

 Dipole moment (field-independent basis, Debye):
    X=            -13.9189    Y=             21.3063    Z=             -0.0466  Tot=             25.4499
 Quadrupole moment (field-independent basis, Debye-Ang):
   XX=           -177.0433   YY=           -153.8878   ZZ=           -144.4693
   XY=             -7.4667   XZ=              8.7564   YZ=              3.3062

  Exact polarizability:     294.638     -24.000     260.324       2.746      -2.179     181.676
 Approx polarizability:     237.759     -13.065     228.253       1.610      -1.528     169.541

                      1                      2                      3
                      A                      A                      A
 Frequencies --     33.6521                52.3962                78.3919
 Red. masses --      8.8759                 9.7337                 8.5593
 Frc consts  --      0.0059                 0.0157                 0.0310
 IR Inten    --      3.8280                 0.3563                 1.4470

                      4                      5                      6
                      A                      A                      A
 Frequencies --    104.9286               113.1736               129.2704
 Red. masses --      8.4673                10.4959                11.0696
 Frc consts  --      0.0549                 0.0792                 0.1090
 IR Inten    --      4.5601                 1.7794                 4.6913

                      7                      8                      9
                      A                      A                      A
 Frequencies --    156.8528               165.5919               206.4422
 Red. masses --      9.8208                14.5946                 6.9456
 Frc consts  --      0.1424                 0.2358                 0.1744
 IR Inten    --      5.4276                 2.7373                 1.0633

                     10                     11                     12
                      A                      A                      A
 Frequencies --    219.2116               229.9878               253.7499
 Red. masses --     13.3552                 9.1185                 3.3044
 Frc consts  --      0.3781                 0.2842                 0.1254
 IR Inten    --      2.8702                 3.0630                51.4697

                     13                     14                     15
                      A                      A                      A
 Frequencies --    286.6767               297.6540               313.8896
 Red. masses --      6.4926                 4.6273                 6.0502
 Frc consts  --      0.3144                 0.2415                 0.3512
 IR Inten    --     48.4425                22.0895                44.2546

                     16                     17                     18
                      A                      A                      A
 Frequencies --    326.9254               356.4430               394.3494
 Red. masses --      6.4689                 5.1203                 2.2949
 Frc consts  --      0.4074                 0.3833                 0.2103
 IR Inten    --     22.8192                21.7200               178.5814

                     19                     20                     21
                      A                      A                      A
 Frequencies --    395.0864               417.1578               462.6285
 Red. masses --      1.8578                 3.7234                 5.2777
 Frc consts  --      0.1709                 0.3818                 0.6655
 IR Inten    --    202.3230                 5.9429                 3.3620

                     22                     23                     24
                      A                      A                      A
 Frequencies --    478.9175               488.4534               499.4637
 Red. masses --      3.1318                 3.3978                 4.4202
 Frc consts  --      0.4232                 0.4776                 0.6497
 IR Inten    --    141.0262                68.5662                35.2769

                     25                     26                     27
                      A                      A                      A
 Frequencies --    507.4916               515.0518               524.9798
 Red. masses --      5.8188                10.8617                 8.2674
 Frc consts  --      0.8830                 1.6977                 1.3425
 IR Inten    --     49.4715                37.5865                65.4207

                     28                     29                     30
                      A                      A                      A
 Frequencies --    532.5895               573.8756               585.7652
 Red. masses --      9.7695                10.3402                11.6927
 Frc consts  --      1.6327                 2.0064                 2.3638
 IR Inten    --    107.9656                91.3148               137.4082

                     31                     32                     33
                      A                      A                      A
 Frequencies --    598.8020               661.8605               692.3347
 Red. masses --      6.5988                 7.9819                 3.1587
 Frc consts  --      1.3941                 2.0601                 0.8921
 IR Inten    --      8.1014                53.9595               164.9984

                     34                     35                     36
                      A                      A                      A
 Frequencies --    706.5196               734.5897               753.1447
 Red. masses --      7.1489                 5.6548                 3.9439
 Frc consts  --      2.1025                 1.7979                 1.3181
 IR Inten    --      9.9924                 1.9854                17.3124

                     37                     38                     39
                      A                      A                      A
 Frequencies --    760.3544               770.1558               887.3913
 Red. masses --      6.1790                 4.4429                 2.4740
 Frc consts  --      2.1047                 1.5526                 1.1478
 IR Inten    --    438.5754                 3.2161                37.2635

                     40                     41                     42
                      A                      A                      A
 Frequencies --    912.8588               935.6293               938.9583
 Red. masses --      1.5568                 6.4722                 1.4667
 Frc consts  --      0.7643                 3.3382                 0.7619
 IR Inten    --     53.2643                40.0957                26.8444

                     43                     44                     45
                      A                      A                      A
 Frequencies --    974.4887              1051.8033              1075.5515
 Red. masses --     10.2023                 3.3142                 3.8252
 Frc consts  --      5.7082                 2.1602                 2.6072
 IR Inten    --    532.3337               129.4513               646.8649

                     46                     47                     48
                      A                      A                      A
 Frequencies --   1090.2106              1104.7120              1134.0119
 Red. masses --      5.1903                 2.4267                 2.6381
 Frc consts  --      3.6347                 1.7449                 1.9989
 IR Inten    --    156.6733                75.7933               257.6828

                     49                     50                     51
                      A                      A                      A
 Frequencies --   1138.3141              1147.7612              1151.7467
 Red. masses --      3.0032                 2.8381                 9.3821
 Frc consts  --      2.2928                 2.2028                 7.3327
 IR Inten    --     41.2411               154.5489               378.9642

                     52                     53                     54
                      A                      A                      A
 Frequencies --   1180.6915              1182.2411              1212.2880
 Red. masses --     10.5044                 5.1788                 3.9478
 Frc consts  --      8.6277                 4.2647                 3.4184
 IR Inten    --    519.9824               866.2065               166.7520

                     55                     56                     57
                      A                      A                      A
 Frequencies --   1275.3149              1286.2019              1300.2801
 Red. masses --      1.9359                 3.8750                 1.5287
 Frc consts  --      1.8551                 3.7769                 1.5228
 IR Inten    --    150.5307               309.5141                75.5673

                     58                     59                     60
                      A                      A                      A
 Frequencies --   1311.1087              1342.0260              1344.5084
 Red. masses --      1.5208                 4.6553                 4.0944
 Frc consts  --      1.5403                 4.9399                 4.3608
 IR Inten    --    141.0584               432.7387                44.0353

                     61                     62                     63
                      A                      A                      A
 Frequencies --   1400.2528              1425.3865              1446.5690
 Red. masses --      1.6316                 2.2547                 1.3577
 Frc consts  --      1.8848                 2.6990                 1.6739
 IR Inten    --     97.9795                91.2321                89.8820

                     64                     65                     66
                      A                      A                      A
 Frequencies --   1514.3059              1531.0713              1557.0831
 Red. masses --      1.1226                 2.7784                 2.8450
 Frc consts  --      1.5167                 3.8374                 4.0640
 IR Inten    --      9.6591                95.7273               519.0485

                     67                     68                     69
                      A                      A                      A
 Frequencies --   1633.9725              1690.2278              3120.8895
 Red. masses --      6.9429                 6.7585                 1.0694
 Frc consts  --     10.9215                11.3760                 6.1371
 IR Inten    --    109.1824               255.1301                35.8306

                     70                     71                     72
                      A                      A                      A
 Frequencies --   3224.7988              3242.7653              3255.9669
 Red. masses --      1.1002                 1.0915                 1.0916
 Frc consts  --      6.7413                 6.7623                 6.8184
 IR Inten    --      2.3380                16.0269                 5.6243

                     73                     74                     75
                      A                      A                      A
 Frequencies --   3497.5845              3535.5783              3613.3503
 Red. masses --      1.0760                 1.0732                 1.0788
 Frc consts  --      7.7555                 7.9041                 8.2983
 IR Inten    --    142.0345                52.4066               219.7323

 - Thermochemistry -
 -------------------
 Temperature   298.150 Kelvin.  Pressure   1.00000 Atm.
 Atom     1 has atomic number  6 and mass  12.00000

 Molecular mass:   329.98301 amu.
 Principal axes and moments of inertia in atomic units:
                           1         2         3
     Eigenvalues --  3663.774488813.29586**********
           X            0.99956  -0.02958   0.00272
           Y            0.02958   0.99956   0.00035
           Z           -0.00273  -0.00027   1.00000
 This molecule is an asymmetric top.
 Rotational symmetry number  1.
 Warning -- assumption of classical behavior for rotation
           may cause significant error
 Rotational temperatures (Kelvin)      0.02364     0.00983     0.00760
 Rotational constants (GHZ):           0.49259     0.20477     0.15836
 Zero-point vibrational energy     454860.3 (Joules/Mol)
                                  108.71423 (Kcal/Mol)
 Warning -- explicit consideration of  31 degrees of freedom as
           vibrations may cause significant error
 Vibrational temperatures:     48.42    75.39   112.79   150.97   162.83
          (Kelvin)            185.99   225.68   238.25   297.02   315.40
                              330.90   365.09   412.46   428.26   451.62
                              470.37   512.84   567.38   568.44   600.20
                              665.62   689.06   702.78   718.62   730.17
                              741.04   755.33   766.28   825.68   842.79
                              861.54   952.27   996.12  1016.52  1056.91
                             1083.61  1093.98  1108.08  1276.76  1313.40
                             1346.16  1350.95  1402.07  1513.31  1547.48
                             1568.57  1589.43  1631.59  1637.78  1651.37
                             1657.11  1698.75  1700.98  1744.21  1834.89
                             1850.56  1870.81  1886.39  1930.88  1934.45
                             2014.65  2050.81  2081.29  2178.75  2202.87
                             2240.30  2350.92  2431.86  4490.26  4639.77
                             4665.62  4684.61  5032.24  5086.91  5198.81

 Zero-point correction=                           0.173247 (Hartree/Particle)
 Thermal correction to Energy=                    0.190533
 Thermal correction to Enthalpy=                  0.191477
 Thermal correction to Gibbs Free Energy=         0.127955
 Sum of electronic and zero-point Energies=          -1869.573206
 Sum of electronic and thermal Energies=             -1869.555920
 Sum of electronic and thermal Enthalpies=           -1869.554976
 Sum of electronic and thermal Free Energies=        -1869.618498

                     E (Thermal)             CV                S
                      KCal/Mol        Cal/Mol-Kelvin    Cal/Mol-Kelvin
 Total                  119.561             66.464            133.695
 Electronic               0.000              0.000              0.000
 Translational            0.889              2.981             43.277
 Rotational               0.889              2.981             34.264
 Vibrational            117.784             60.502             56.154
 Vibration     1          0.594              1.983              5.602
 Vibration     2          0.596              1.977              4.725
 Vibration     3          0.600              1.964              3.931
 Vibration     4          0.605              1.945              3.361
 Vibration     5          0.607              1.939              3.214
 Vibration     6          0.612              1.924              2.957
 Vibration     7          0.621              1.895              2.587
 Vibration     8          0.624              1.885              2.485
 Vibration     9          0.641              1.831              2.075
 Vibration    10          0.647              1.812              1.966
 Vibration    11          0.652              1.795              1.879
 Vibration    12          0.665              1.756              1.704
 Vibration    13          0.684              1.698              1.494
 Vibration    14          0.691              1.678              1.430
 Vibration    15          0.702              1.647              1.342
 Vibration    16          0.711              1.622              1.275
 Vibration    17          0.732              1.562              1.138
 Vibration    18          0.761              1.482              0.984
 Vibration    19          0.762              1.481              0.981
 Vibration    20          0.780              1.433              0.902
 Vibration    21          0.820              1.333              0.758
 Vibration    22          0.835              1.297              0.713
 Vibration    23          0.844              1.276              0.688
 Vibration    24          0.855              1.251              0.659
 Vibration    25          0.863              1.233              0.640
 Vibration    26          0.870              1.217              0.622
 Vibration    27          0.880              1.195              0.599
 Vibration    28          0.888              1.178              0.581
 Vibration    29          0.930              1.088              0.497
 Vibration    30          0.943              1.062              0.475
 Vibration    31          0.957              1.034              0.452

 Optimization completed.
    -- Stationary point found.
 Normal termination of Gaussian 16 at Thu Jun 30 18:49:14 2022.
