 Gaussian 16, Revision C.01,
 Gaussian 16:  ES64L-G16RevC.01  3-Jul-2019

 -----------------------------------------------------
 #m062X/gen 6D OPT Freq=noraman SCRF=(SMD,Solvent=h2o)
 -----------------------------------------------------

 -----------------
 A.31.smd.a2b3.smd
 -----------------
 Symbolic Z-matrix:
 Charge = -1 Multiplicity = 1

 SCF Done:  E(RM062X) =  -1991.14215636     A.U. after   17 cycles
 SCF Done:  E(RM062X) =  -1991.14700415     A.U. after   15 cycles
 SCF Done:  E(RM062X) =  -1991.14829965     A.U. after   14 cycles
 SCF Done:  E(RM062X) =  -1991.14891162     A.U. after   14 cycles
 SCF Done:  E(RM062X) =  -1991.14972992     A.U. after   14 cycles
 SCF Done:  E(RM062X) =  -1991.15035030     A.U. after   13 cycles
 SCF Done:  E(RM062X) =  -1991.15046785     A.U. after   15 cycles
 SCF Done:  E(RM062X) =  -1991.15049078     A.U. after   12 cycles
 SCF Done:  E(RM062X) =  -1991.15049242     A.U. after   10 cycles
 SCF Done:  E(RM062X) =  -1991.15049241     A.U. after   10 cycles
 Optimization completed.
    -- Stationary point found.
 Normal termination of Gaussian 16 at Fri Jul  1 00:28:11 2022.

 ------------------------------------------------------------------
 #N Geom=AllCheck Guess=TCheck SCRF=Check GenChk RM062X/ChkBas Freq
 ------------------------------------------------------------------

 Structure from the checkpoint file:  "/jobfs/48970299.gadi-pbs/Gau-3773541.chk"
 -----------------
 A.31.smd.a2b3.smd
 -----------------
 Charge = -1 Multiplicity = 1

                         Standard orientation:
 ---------------------------------------------------------------------
 Center     Atomic      Atomic             Coordinates (Angstroms)
 Number     Number       Type             X           Y           Z
 ---------------------------------------------------------------------
      1          6           0        1.200119   -0.108335   -0.005337
      2          6           0        1.181351    1.294063    0.050112
      3         17           0        2.661346    2.210750    0.109042
      4          6           0       -0.003423    2.010327    0.051378
      5          1           0        0.006670    3.095071    0.076297
      6          6           0       -1.236387    1.346357    0.005791
      7          6           0       -1.201334   -0.056945   -0.024196
      8         16           0       -2.710595   -0.932451    0.110477
      9          6           0       -0.011846   -0.781248   -0.035190
     10          1           0       -0.022907   -1.866856   -0.064547
     11         16           0        2.737734   -1.082274   -0.050222
     12          8           0        3.376068   -0.755057    1.255428
     13          8           0        2.244119   -2.477167   -0.153448
     14          7           0        3.566157   -0.728186   -1.318685
     15          1           0        4.058066    0.151489   -1.150497
     16          7           0       -2.392875    2.125150   -0.051324
     17          6           0       -3.507702    1.560666   -0.350494
     18          7           0       -3.705965    0.216052   -0.582608
     19          8           0       -2.741865   -2.123483   -0.730760
     20          8           0       -3.060768   -1.103903    1.518972
     21          1           0       -4.398639    2.165913   -0.490770
     22          1           0       -4.656594   -0.096311   -0.793885
 ---------------------------------------------------------------------

 SCF Done:  E(RM062X) =  -1991.15049241     A.U. after    1 cycles

 The electronic state is 1-A.
 Alpha  occ. eigenvalues -- -102.68978 -90.20041 -90.14487 -19.67594 -19.67332
 Alpha  occ. eigenvalues --  -19.62626 -19.62548 -14.84030 -14.78568 -14.72463
 Alpha  occ. eigenvalues --  -10.66340 -10.64821 -10.63341 -10.61525 -10.60221
 Alpha  occ. eigenvalues --  -10.59858 -10.58515  -9.83623  -8.51023  -8.45292
 Alpha  occ. eigenvalues --   -7.56029  -7.55368  -7.55334  -6.43278  -6.43165
 Alpha  occ. eigenvalues --   -6.43074  -6.37531  -6.37453  -6.37378  -1.27703
 Alpha  occ. eigenvalues --   -1.21657  -1.15675  -1.12306  -1.09981  -1.04317
 Alpha  occ. eigenvalues --   -1.01607  -0.97010  -0.96673  -0.89300  -0.88265
 Alpha  occ. eigenvalues --   -0.80085  -0.77520  -0.73291  -0.70513  -0.66065
 Alpha  occ. eigenvalues --   -0.65889  -0.64437  -0.60675  -0.58928  -0.57938
 Alpha  occ. eigenvalues --   -0.57085  -0.56261  -0.54925  -0.53187  -0.52456
 Alpha  occ. eigenvalues --   -0.51937  -0.50060  -0.48805  -0.47421  -0.45566
 Alpha  occ. eigenvalues --   -0.44860  -0.43240  -0.42078  -0.41288  -0.40953
 Alpha  occ. eigenvalues --   -0.40073  -0.39580  -0.38670  -0.37954  -0.36842
 Alpha  occ. eigenvalues --   -0.36135  -0.33567  -0.32883  -0.31910  -0.29457
 Alpha virt. eigenvalues --   -0.04058  -0.02072   0.00946   0.02012   0.02634
 Alpha virt. eigenvalues --    0.03568   0.03615   0.04083   0.04218   0.04793
 Alpha virt. eigenvalues --    0.05434   0.05674   0.06311   0.06973   0.07278

 Mulliken charges:
               1
     1  C   -2.164921
     2  C    1.285987
     3  Cl   0.243522
     4  C   -1.259724
     5  H    0.294643
     6  C    0.436196
     7  C   -0.092817
     8  S    1.764294
     9  C   -0.417725
    10  H    0.312675
    11  S    1.550291
    12  O   -0.636746
    13  O   -0.772110
    14  N   -0.865913
    15  H    0.406397
    16  N   -0.273285
    17  C    0.158435
    18  N   -0.724284
    19  O   -0.589777
    20  O   -0.516425
    21  H    0.293158
    22  H    0.568131
 Sum of Mulliken charges =  -1.00000

 Dipole moment (field-independent basis, Debye):
    X=            -17.2645    Y=             12.0396    Z=             -2.3460  Tot=             21.1782
 Quadrupole moment (field-independent basis, Debye-Ang):
   XX=           -146.2559   YY=           -145.9928   ZZ=           -139.0299
   XY=             10.6428   XZ=             11.2032   YZ=             -3.9033

  Exact polarizability:     323.263       5.215     248.844       0.823       4.360     163.450
 Approx polarizability:     263.368       9.762     224.085       2.285       5.831     155.474

                      1                      2                      3
                      A                      A                      A
 Frequencies --     43.7465                57.1164                80.9835
 Red. masses --     10.8292                 9.0807                10.7178
 Frc consts  --      0.0122                 0.0175                 0.0414
 IR Inten    --      3.0484                 0.7084                 3.1930

                      4                      5                      6
                      A                      A                      A
 Frequencies --    102.4903               133.3744               176.9997
 Red. masses --      9.7876                11.2109                17.3022
 Frc consts  --      0.0606                 0.1175                 0.3194
 IR Inten    --      8.4230                 4.8888                 0.0553

                      7                      8                      9
                      A                      A                      A
 Frequencies --    195.0198               199.7163               245.7550
 Red. masses --      9.6044                 6.2382                10.6135
 Frc consts  --      0.2152                 0.1466                 0.3777
 IR Inten    --      3.3364                 6.7282                16.8825

                     10                     11                     12
                      A                      A                      A
 Frequencies --    249.6621               290.3078               316.0536
 Red. masses --      6.9894                 5.2481                 5.7926
 Frc consts  --      0.2567                 0.2606                 0.3409
 IR Inten    --      2.0124                12.8646                33.1444

                     13                     14                     15
                      A                      A                      A
 Frequencies --    328.5342               375.4083               401.7628
 Red. masses --      4.8090                 9.4832                 2.8478
 Frc consts  --      0.3058                 0.7874                 0.2708
 IR Inten    --     27.8430                28.2869                59.1260

                     16                     17                     18
                      A                      A                      A
 Frequencies --    436.2174               446.6939               470.9186
 Red. masses --      4.6932                 5.0056                 6.8667
 Frc consts  --      0.5262                 0.5885                 0.8972
 IR Inten    --      4.3919               163.4642               106.8108

                     19                     20                     21
                      A                      A                      A
 Frequencies --    492.2416               499.5319               510.3972
 Red. masses --      2.0217                 2.0959                 6.4080
 Frc consts  --      0.2886                 0.3081                 0.9835
 IR Inten    --     34.7475               175.4787               160.1535

                     22                     23                     24
                      A                      A                      A
 Frequencies --    531.0902               536.1607               551.5193
 Red. masses --      7.6008                 6.9871                 4.6584
 Frc consts  --      1.2631                 1.1834                 0.8348
 IR Inten    --     57.1964               133.8291                54.3728

                     25                     26                     27
                      A                      A                      A
 Frequencies --    566.0807               589.4939               667.6447
 Red. masses --      4.9017                11.8084                 9.2229
 Frc consts  --      0.9255                 2.4177                 2.4222
 IR Inten    --      1.6878               147.6940                60.9835

                     28                     29                     30
                      A                      A                      A
 Frequencies --    689.7579               718.7006               753.3771
 Red. masses --      8.1746                 6.9769                 4.0033
 Frc consts  --      2.2915                 2.1233                 1.3387
 IR Inten    --      5.7056                22.3229                13.2605

                     31                     32                     33
                      A                      A                      A
 Frequencies --    808.8778               902.3175               914.3420
 Red. masses --      7.1640                 5.7483                 1.5653
 Frc consts  --      2.7617                 2.7575                 0.7710
 IR Inten    --     85.9851                34.1125                26.8531

                     34                     35                     36
                      A                      A                      A
 Frequencies --    935.4183               937.8245               982.6088
 Red. masses --      1.7743                 3.9431                11.7240
 Frc consts  --      0.9147                 2.0433                 6.6694
 IR Inten    --     47.0457                 9.9256               678.0274

                     37                     38                     39
                      A                      A                      A
 Frequencies --    992.6383              1078.4785              1094.6554
 Red. masses --      1.4443                 3.4475                 5.1292
 Frc consts  --      0.8385                 2.3625                 3.6212
 IR Inten    --     11.5644               668.5022               257.5093

                     40                     41                     42
                      A                      A                      A
 Frequencies --   1116.7241              1129.4593              1151.9330
 Red. masses --      2.9642                 2.7690                 2.0645
 Frc consts  --      2.1780                 2.0812                 1.6140
 IR Inten    --    136.6805               289.7075                45.0151

                     43                     44                     45
                      A                      A                      A
 Frequencies --   1176.8828              1199.8170              1254.2103
 Red. masses --      8.9992                 3.2690                 2.5302
 Frc consts  --      7.3438                 2.7727                 2.3450
 IR Inten    --    185.8642               506.4070               106.0960

                     46                     47                     48
                      A                      A                      A
 Frequencies --   1273.3792              1290.3609              1333.4315
 Red. masses --      1.3304                19.4543                 9.5531
 Frc consts  --      1.2710                19.0849                10.0078
 IR Inten    --     11.8945               513.5305                48.3477

                     49                     50                     51
                      A                      A                      A
 Frequencies --   1407.2040              1420.8948              1449.7225
 Red. masses --      3.8112                 1.6781                 1.6745
 Frc consts  --      4.4466                 1.9962                 2.0734
 IR Inten    --     42.4081               446.8628                 2.9885

                     52                     53                     54
                      A                      A                      A
 Frequencies --   1504.2005              1612.9926              1662.7757
 Red. masses --      3.2581                 9.8842                 7.5866
 Frc consts  --      4.3433                15.1516                12.3584
 IR Inten    --    141.8888               102.5254               407.7329

                     55                     56                     57
                      A                      A                      A
 Frequencies --   1705.8739              3246.0910              3257.0986
 Red. masses --      7.4357                 1.0919                 1.0938
 Frc consts  --     12.7488                 6.7791                 6.8366
 IR Inten    --    430.5549                25.8374                 2.8539

                     58                     59                     60
                      A                      A                      A
 Frequencies --   3262.2410              3525.4731              3529.4716
 Red. masses --      1.0958                 1.0792                 1.0734
 Frc consts  --      6.8706                 7.9029                 7.8786
 IR Inten    --      0.5008               444.6764                43.8458

 - Thermochemistry -
 -------------------
 Temperature   298.150 Kelvin.  Pressure   1.00000 Atm.
 Atom     1 has atomic number  6 and mass  12.00000

 Molecular mass:   293.94100 amu.
 Principal axes and moments of inertia in atomic units:
                           1         2         3
     Eigenvalues --  2699.829267448.601579399.81979
           X            0.99994  -0.01056   0.00053
           Y            0.01056   0.99994  -0.00193
           Z           -0.00051   0.00194   1.00000
 This molecule is an asymmetric top.
 Rotational symmetry number  1.
 Warning -- assumption of classical behavior for rotation
           may cause significant error
 Rotational temperatures (Kelvin)      0.03208     0.01163     0.00921
 Rotational constants (GHZ):           0.66846     0.24229     0.19200
 Zero-point vibrational energy     351786.8 (Joules/Mol)
                                   84.07906 (Kcal/Mol)
 Warning -- explicit consideration of  26 degrees of freedom as
           vibrations may cause significant error
 Vibrational temperatures:     62.94    82.18   116.52   147.46   191.90
          (Kelvin)            254.66   280.59   287.35   353.59   359.21
                              417.69   454.73   472.69   540.13   578.05
                              627.62   642.69   677.55   708.23   718.71
                              734.35   764.12   771.42   793.51   814.46
                              848.15   960.59   992.41  1034.05  1083.94
                             1163.79  1298.23  1315.53  1345.86  1349.32
                             1413.75  1428.19  1551.69  1574.96  1606.72
                             1625.04  1657.37  1693.27  1726.27  1804.53
                             1832.11  1856.54  1918.51  2024.65  2044.35
                             2085.83  2164.21  2320.74  2392.36  2454.37
                             4670.40  4686.24  4693.64  5072.37  5078.12

 Zero-point correction=                           0.133989 (Hartree/Particle)
 Thermal correction to Energy=                    0.148652
 Thermal correction to Enthalpy=                  0.149596
 Thermal correction to Gibbs Free Energy=         0.091485
 Sum of electronic and zero-point Energies=          -1991.016504
 Sum of electronic and thermal Energies=             -1991.001840
 Sum of electronic and thermal Enthalpies=           -1991.000896
 Sum of electronic and thermal Free Energies=        -1991.059007

                     E (Thermal)             CV                S
                      KCal/Mol        Cal/Mol-Kelvin    Cal/Mol-Kelvin
 Total                   93.281             55.691            122.305
 Electronic               0.000              0.000              0.000
 Translational            0.889              2.981             42.932
 Rotational               0.889              2.981             33.602
 Vibrational             91.503             49.729             45.771
 Vibration     1          0.595              1.980              5.082
 Vibration     2          0.596              1.975              4.554
 Vibration     3          0.600              1.962              3.867
 Vibration     4          0.605              1.947              3.406
 Vibration     5          0.613              1.920              2.897
 Vibration     6          0.628              1.871              2.360
 Vibration     7          0.636              1.847              2.180
 Vibration     8          0.638              1.840              2.136
 Vibration     9          0.660              1.770              1.761
 Vibration    10          0.662              1.763              1.733
 Vibration    11          0.686              1.692              1.472
 Vibration    12          0.703              1.643              1.330
 Vibration    13          0.712              1.618              1.267
 Vibration    14          0.746              1.522              1.058
 Vibration    15          0.767              1.466              0.956
 Vibration    16          0.797              1.391              0.839
 Vibration    17          0.806              1.368              0.806
 Vibration    18          0.828              1.315              0.735
 Vibration    19          0.848              1.267              0.678
 Vibration    20          0.855              1.251              0.659
 Vibration    21          0.866              1.227              0.633
 Vibration    22          0.886              1.181              0.585
 Vibration    23          0.891              1.170              0.574
 Vibration    24          0.907              1.136              0.541
 Vibration    25          0.922              1.105              0.512
 Vibration    26          0.947              1.054              0.468

 Optimization completed.
    -- Stationary point found.
 Normal termination of Gaussian 16 at Fri Jul  1 00:35:36 2022.
