 Gaussian 16, Revision C.01,
 Gaussian 16:  ES64L-G16RevC.01  3-Jul-2019

 -----------------------------------------------------
 #m062X/gen 6D OPT Freq=noraman SCRF=(SMD,Solvent=h2o)
 -----------------------------------------------------

 -----------------
 A.32.smd.a2b3.smd
 -----------------
 Symbolic Z-matrix:
 Charge = -1 Multiplicity = 1

 SCF Done:  E(RM062X) =  -1992.35261878     A.U. after   17 cycles
 SCF Done:  E(RM062X) =  -1992.35723120     A.U. after   14 cycles
 SCF Done:  E(RM062X) =  -1992.35834881     A.U. after   14 cycles
 SCF Done:  E(RM062X) =  -1992.35898227     A.U. after   14 cycles
 SCF Done:  E(RM062X) =  -1992.35943546     A.U. after   14 cycles
 SCF Done:  E(RM062X) =  -1992.36007940     A.U. after   14 cycles
 SCF Done:  E(RM062X) =  -1992.36023990     A.U. after   14 cycles
 SCF Done:  E(RM062X) =  -1992.36025290     A.U. after   12 cycles
 SCF Done:  E(RM062X) =  -1992.36025520     A.U. after   11 cycles
 SCF Done:  E(RM062X) =  -1992.36025589     A.U. after   11 cycles
 SCF Done:  E(RM062X) =  -1992.36025629     A.U. after   10 cycles
 SCF Done:  E(RM062X) =  -1992.36025656     A.U. after   10 cycles
 Optimization completed.
    -- Stationary point found.
 Normal termination of Gaussian 16 at Fri Jul  1 00:31:57 2022.

 ------------------------------------------------------------------
 #N Geom=AllCheck Guess=TCheck SCRF=Check GenChk RM062X/ChkBas Freq
 ------------------------------------------------------------------

 Structure from the checkpoint file:  "/jobfs/48971728.gadi-pbs/Gau-2285403.chk"
 -----------------
 A.32.smd.a2b3.smd
 -----------------
 Charge = -1 Multiplicity = 1

                         Standard orientation:
 ---------------------------------------------------------------------
 Center     Atomic      Atomic             Coordinates (Angstroms)
 Number     Number       Type             X           Y           Z
 ---------------------------------------------------------------------
      1          6           0        1.245515   -0.106660    0.002630
      2          6           0        1.221373    1.298350   -0.015491
      3         17           0        2.703019    2.219611   -0.015301
      4          6           0        0.043040    2.016019   -0.042281
      5          1           0        0.061559    3.101435   -0.061415
      6          6           0       -1.199021    1.352169   -0.045207
      7          6           0       -1.168619   -0.055796   -0.026818
      8         16           0       -2.664059   -0.993729   -0.009927
      9          6           0        0.029044   -0.768684   -0.008010
     10          1           0        0.017023   -1.855269   -0.003153
     11         16           0        2.776906   -1.076459    0.029649
     12          8           0        3.406752   -0.680912    1.323235
     13          8           0        2.290935   -2.479365    0.000705
     14          7           0        3.631253   -0.802104   -1.244560
     15          1           0        4.108029    0.094032   -1.127155
     16          7           0       -2.365386    2.065053   -0.126973
     17          6           0       -3.611279    1.414668    0.218056
     18          7           0       -3.702415    0.178663   -0.573490
     19          8           0       -2.616465   -2.071665   -1.000117
     20          8           0       -2.977010   -1.401294    1.367544
     21          1           0       -4.441885    2.052648   -0.075507
     22          1           0       -4.657705   -0.189644   -0.607470
     23          1           0       -2.302635    3.049742    0.110826
     24          1           0       -3.679459    1.210894    1.295392
 ---------------------------------------------------------------------

 SCF Done:  E(RM062X) =  -1992.36025656     A.U. after    1 cycles

 The electronic state is 1-A.
 Alpha  occ. eigenvalues -- -102.68694 -90.18274 -90.14140 -19.66406 -19.66110
 Alpha  occ. eigenvalues --  -19.62323 -19.62194 -14.81148 -14.79801 -14.72105
 Alpha  occ. eigenvalues --  -10.64410 -10.63786 -10.63185 -10.60299 -10.59264
 Alpha  occ. eigenvalues --  -10.59003 -10.57830  -9.83342  -8.49346  -8.44947
 Alpha  occ. eigenvalues --   -7.55745  -7.55088  -7.55057  -6.41538  -6.41501
 Alpha  occ. eigenvalues --   -6.41415  -6.37189  -6.37104  -6.37031  -1.26104
 Alpha  occ. eigenvalues --   -1.21237  -1.14164  -1.10359  -1.09567  -1.03644
 Alpha  occ. eigenvalues --   -1.01119  -0.96422  -0.96002  -0.88212  -0.87345
 Alpha  occ. eigenvalues --   -0.79670  -0.76919  -0.74025  -0.70189  -0.66044
 Alpha  occ. eigenvalues --   -0.64323  -0.63225  -0.60240  -0.58987  -0.58566
 Alpha  occ. eigenvalues --   -0.56757  -0.55981  -0.55253  -0.53039  -0.52627
 Alpha  occ. eigenvalues --   -0.52152  -0.51405  -0.50279  -0.48496  -0.46280
 Alpha  occ. eigenvalues --   -0.44511  -0.43954  -0.42901  -0.41987  -0.41370
 Alpha  occ. eigenvalues --   -0.40062  -0.39506  -0.39340  -0.38427  -0.37672
 Alpha  occ. eigenvalues --   -0.36200  -0.35692  -0.33305  -0.32351  -0.30846
 Alpha  occ. eigenvalues --   -0.27457
 Alpha virt. eigenvalues --   -0.01913   0.00046   0.01185   0.02173   0.02599
 Alpha virt. eigenvalues --    0.03503   0.03710   0.04256   0.04703   0.05338
 Alpha virt. eigenvalues --    0.05622   0.06380   0.06828   0.07430   0.07705

 Mulliken charges:
               1
     1  C   -2.599502
     2  C    1.394662
     3  Cl   0.226021
     4  C   -1.349739
     5  H    0.288385
     6  C    0.818966
     7  C    0.071174
     8  S    1.826320
     9  C   -0.516533
    10  H    0.305106
    11  S    1.562766
    12  O   -0.647873
    13  O   -0.778617
    14  N   -0.871148
    15  H    0.402812
    16  N   -0.580573
    17  C   -0.204699
    18  N   -0.801606
    19  O   -0.609159
    20  O   -0.541951
    21  H    0.286976
    22  H    0.542520
    23  H    0.502608
    24  H    0.273082
 Sum of Mulliken charges =  -1.00000

 Dipole moment (field-independent basis, Debye):
    X=            -18.7566    Y=             17.7204    Z=              0.3512  Tot=             25.8060
 Quadrupole moment (field-independent basis, Debye-Ang):
   XX=           -154.3539   YY=           -134.1077   ZZ=           -143.3244
   XY=             -0.7670   XZ=             -2.0669   YZ=              0.3420

  Exact polarizability:     307.896      -6.445     253.232      -5.753       1.425     174.154
 Approx polarizability:     247.163      -0.573     223.721      -2.888       1.026     162.257

                      1                      2                      3
                      A                      A                      A
 Frequencies --     26.1648                49.9389                78.8834
 Red. masses --      8.9523                 8.0035                 8.7435
 Frc consts  --      0.0036                 0.0118                 0.0321
 IR Inten    --      2.6609                 1.2694                 5.6138

                      4                      5                      6
                      A                      A                      A
 Frequencies --    101.2986               127.6475               175.9614
 Red. masses --      8.5874                10.0172                15.7933
 Frc consts  --      0.0519                 0.0962                 0.2881
 IR Inten    --      8.4667                 3.0441                 0.2182

                      7                      8                      9
                      A                      A                      A
 Frequencies --    189.3014               214.2893               241.1070
 Red. masses --     12.0709                 5.7241                 9.3940
 Frc consts  --      0.2549                 0.1549                 0.3218
 IR Inten    --      2.8051                 2.0060                23.4906

                     10                     11                     12
                      A                      A                      A
 Frequencies --    245.6898               253.5157               297.7287
 Red. masses --      5.3233                 3.9052                 4.2288
 Frc consts  --      0.1893                 0.1479                 0.2209
 IR Inten    --      0.6447                48.5302                60.9309

                     13                     14                     15
                      A                      A                      A
 Frequencies --    317.8572               333.9611               385.5931
 Red. masses --      4.3215                 4.5968                 3.1552
 Frc consts  --      0.2572                 0.3021                 0.2764
 IR Inten    --     13.5978                 1.8365                32.0167

                     16                     17                     18
                      A                      A                      A
 Frequencies --    402.5987               408.3576               433.2765
 Red. masses --      3.9218                 1.8041                 3.0525
 Frc consts  --      0.3745                 0.1773                 0.3376
 IR Inten    --    173.2769               187.8760                43.2265

                     19                     20                     21
                      A                      A                      A
 Frequencies --    465.8302               490.7195               493.2850
 Red. masses --      3.8720                 2.9970                 2.5844
 Frc consts  --      0.4950                 0.4252                 0.3705
 IR Inten    --    301.0992               143.5049                26.1843

                     22                     23                     24
                      A                      A                      A
 Frequencies --    508.2541               523.5050               531.6655
 Red. masses --      8.8737                 6.7981                 7.7440
 Frc consts  --      1.3506                 1.0977                 1.2897
 IR Inten    --    115.6869                24.9916               114.2740

                     25                     26                     27
                      A                      A                      A
 Frequencies --    543.5175               584.2872               613.3634
 Red. masses --      7.0714                10.0036                 2.6586
 Frc consts  --      1.2308                 2.0122                 0.5893
 IR Inten    --     46.5243               130.7855               181.5162

                     28                     29                     30
                      A                      A                      A
 Frequencies --    666.2123               671.2796               720.5466
 Red. masses --      9.9868                 8.6675                 6.9739
 Frc consts  --      2.6116                 2.3012                 2.1333
 IR Inten    --     50.3858                12.2654                28.2584

                     31                     32                     33
                      A                      A                      A
 Frequencies --    724.8609               806.7005               876.3775
 Red. masses --      3.7667                 5.8476                 2.3080
 Frc consts  --      1.1661                 2.2421                 1.0444
 IR Inten    --     20.4796               106.8045               101.8305

                     34                     35                     36
                      A                      A                      A
 Frequencies --    882.6499               921.3796               940.9195
 Red. masses --      1.5936                 6.8595                 1.3884
 Frc consts  --      0.7315                 3.4310                 0.7242
 IR Inten    --     44.2859                35.5559                22.6402

                     37                     38                     39
                      A                      A                      A
 Frequencies --    970.7624              1031.6120              1070.8491
 Red. masses --      9.8408                 3.4673                 4.0673
 Frc consts  --      5.4639                 2.1740                 2.7479
 IR Inten    --    537.5760               159.1805               704.1734

                     40                     41                     42
                      A                      A                      A
 Frequencies --   1080.7464              1117.1293              1122.1419
 Red. masses --      4.1575                 2.5791                 2.6318
 Frc consts  --      2.8611                 1.8963                 1.9526
 IR Inten    --    135.6903               181.3716               308.6595

                     43                     44                     45
                      A                      A                      A
 Frequencies --   1139.7437              1148.2100              1164.7472
 Red. masses --      3.5332                 2.2088                 3.4823
 Frc consts  --      2.7042                 1.7157                 2.7834
 IR Inten    --     39.0083               249.9409                84.1782

                     46                     47                     48
                      A                      A                      A
 Frequencies --   1194.7049              1259.6903              1261.3861
 Red. masses --      2.9725                10.9854                 1.5115
 Frc consts  --      2.4997                10.2705                 1.4170
 IR Inten    --    499.7802               583.1054                82.9816

                     49                     50                     51
                      A                      A                      A
 Frequencies --   1293.1853              1310.2079              1333.4683
 Red. masses --      1.4630                 1.6000                 1.5537
 Frc consts  --      1.4415                 1.6183                 1.6278
 IR Inten    --     29.7237                 8.7768               153.6571

                     52                     53                     54
                      A                      A                      A
 Frequencies --   1368.7021              1403.1975              1445.5049
 Red. masses --      3.3502                 2.4921                 1.6031
 Frc consts  --      3.6978                 2.8910                 1.9735
 IR Inten    --     19.3718                29.6110               216.3260

                     55                     56                     57
                      A                      A                      A
 Frequencies --   1498.1864              1531.0370              1555.5314
 Red. masses --      2.3899                 1.1673                 2.6373
 Frc consts  --      3.1605                 1.6121                 3.7598
 IR Inten    --     25.3882                30.3485               349.6652

                     58                     59                     60
                      A                      A                      A
 Frequencies --   1626.2359              1672.4351              3073.4168
 Red. masses --      6.5149                 7.1033                 1.0716
 Frc consts  --     10.1513                11.7061                 5.9640
 IR Inten    --    149.5960               576.2483                67.3583

                     61                     62                     63
                      A                      A                      A
 Frequencies --   3216.3685              3240.5781              3245.7701
 Red. masses --      1.0967                 1.0913                 1.0935
 Frc consts  --      6.6843                 6.7524                 6.7871
 IR Inten    --      1.5971                19.8387                 1.4146

                     64                     65                     66
                      A                      A                      A
 Frequencies --   3494.9637              3526.3615              3607.0328
 Red. masses --      1.0766                 1.0733                 1.0783
 Frc consts  --      7.7483                 7.8640                 8.2662
 IR Inten    --    202.1884                43.4173               203.1892

 - Thermochemistry -
 -------------------
 Temperature   298.150 Kelvin.  Pressure   1.00000 Atm.
 Atom     1 has atomic number  6 and mass  12.00000

 Molecular mass:   295.95665 amu.
 Principal axes and moments of inertia in atomic units:
                           1         2         3
     Eigenvalues --  2750.751457547.420959552.20326
           X            0.99982  -0.01863  -0.00338
           Y            0.01864   0.99982   0.00297
           Z            0.00332  -0.00303   0.99999
 This molecule is an asymmetric top.
 Rotational symmetry number  1.
 Warning -- assumption of classical behavior for rotation
           may cause significant error
 Rotational temperatures (Kelvin)      0.03149     0.01148     0.00907
 Rotational constants (GHZ):           0.65609     0.23912     0.18893
 Zero-point vibrational energy     414221.5 (Joules/Mol)
                                   99.00132 (Kcal/Mol)
 Warning -- explicit consideration of  27 degrees of freedom as
           vibrations may cause significant error
 Vibrational temperatures:     37.65    71.85   113.50   145.75   183.66
          (Kelvin)            253.17   272.36   308.31   346.90   353.49
                              364.75   428.37   457.33   480.50   554.78
                              579.25   587.54   623.39   670.23   706.04
                              709.73   731.26   753.21   764.95   782.00
                              840.66   882.49   958.53   965.82  1036.71
                             1042.91  1160.66  1260.91  1269.94  1325.66
                             1353.77  1396.71  1484.26  1540.71  1554.95
                             1607.30  1614.51  1639.84  1652.02  1675.81
                             1718.91  1812.41  1814.85  1860.61  1885.10
                             1918.56  1969.26  2018.89  2079.76  2155.56
                             2202.82  2238.06  2339.79  2406.26  4421.96
                             4627.64  4662.47  4669.94  5028.47  5073.65
                             5189.72

 Zero-point correction=                           0.157769 (Hartree/Particle)
 Thermal correction to Energy=                    0.173067
 Thermal correction to Enthalpy=                  0.174011
 Thermal correction to Gibbs Free Energy=         0.114269
 Sum of electronic and zero-point Energies=          -1992.202488
 Sum of electronic and thermal Energies=             -1992.187190
 Sum of electronic and thermal Enthalpies=           -1992.186246
 Sum of electronic and thermal Free Energies=        -1992.245987

                     E (Thermal)             CV                S
                      KCal/Mol        Cal/Mol-Kelvin    Cal/Mol-Kelvin
 Total                  108.601             58.194            125.737
 Electronic               0.000              0.000              0.000
 Translational            0.889              2.981             42.952
 Rotational               0.889              2.981             33.650
 Vibrational            106.824             52.232             49.135
 Vibration     1          0.593              1.985              6.101
 Vibration     2          0.595              1.978              4.820
 Vibration     3          0.600              1.963              3.918
 Vibration     4          0.604              1.948              3.429
 Vibration     5          0.611              1.926              2.981
 Vibration     6          0.628              1.872              2.371
 Vibration     7          0.633              1.855              2.235
 Vibration     8          0.644              1.819              2.007
 Vibration     9          0.658              1.777              1.795
 Vibration    10          0.660              1.770              1.761
 Vibration    11          0.665              1.757              1.706
 Vibration    12          0.691              1.678              1.430
 Vibration    13          0.704              1.639              1.321
 Vibration    14          0.715              1.608              1.241
 Vibration    15          0.754              1.501              1.017
 Vibration    16          0.768              1.465              0.953
 Vibration    17          0.773              1.452              0.932
 Vibration    18          0.794              1.398              0.848
 Vibration    19          0.823              1.326              0.749
 Vibration    20          0.847              1.271              0.682
 Vibration    21          0.849              1.265              0.675
 Vibration    22          0.863              1.232              0.638
 Vibration    23          0.878              1.198              0.602
 Vibration    24          0.887              1.180              0.583
 Vibration    25          0.899              1.154              0.558
 Vibration    26          0.941              1.065              0.477
 Vibration    27          0.973              1.004              0.427

                           ! Non-Optimized Parameters !
 Normal termination of Gaussian 16 at Fri Jul  1 00:40:18 2022.
