 Gaussian 16, Revision C.01,
 Gaussian 16:  ES64L-G16RevC.01  3-Jul-2019

 -----------------------------------------------------
 #m062X/gen 6D OPT Freq=noraman SCRF=(SMD,Solvent=h2o)
 -----------------------------------------------------

 -----------------
 A.33.smd.a1c3.smd
 -----------------
 Symbolic Z-matrix:
 Charge = -1 Multiplicity = 1

 SCF Done:  E(RM062X) =  -1704.82879649     A.U. after   17 cycles
 SCF Done:  E(RM062X) =  -1704.82978475     A.U. after   17 cycles
 SCF Done:  E(RM062X) =  -1704.83079153     A.U. after   16 cycles
 SCF Done:  E(RM062X) =  -1704.83229211     A.U. after   14 cycles
 SCF Done:  E(RM062X) =  -1704.83287112     A.U. after   15 cycles
 SCF Done:  E(RM062X) =  -1704.83301252     A.U. after   14 cycles
 SCF Done:  E(RM062X) =  -1704.83310113     A.U. after   13 cycles
 SCF Done:  E(RM062X) =  -1704.83313549     A.U. after   13 cycles
 SCF Done:  E(RM062X) =  -1704.83314627     A.U. after   13 cycles
 SCF Done:  E(RM062X) =  -1704.83314837     A.U. after   11 cycles
 SCF Done:  E(RM062X) =  -1704.83314988     A.U. after   12 cycles
 SCF Done:  E(RM062X) =  -1704.83314963     A.U. after   11 cycles
 SCF Done:  E(RM062X) =  -1704.83314933     A.U. after   11 cycles
 SCF Done:  E(RM062X) =  -1704.83314994     A.U. after   11 cycles
 SCF Done:  E(RM062X) =  -1704.83314984     A.U. after   11 cycles
 Optimization completed.
    -- Stationary point found.
 Normal termination of Gaussian 16 at Fri Jul  1 10:02:52 2022.

 ------------------------------------------------------------------
 #N Geom=AllCheck Guess=TCheck SCRF=Check GenChk RM062X/ChkBas Freq
 ------------------------------------------------------------------

 Structure from the checkpoint file:  "/jobfs/49796083.gadi-pbs/Gau-4188160.chk"
 -----------------
 A.33.smd.a1c3.smd
 -----------------
 Charge = -1 Multiplicity = 1

                         Standard orientation:
 ---------------------------------------------------------------------
 Center     Atomic      Atomic             Coordinates (Angstroms)
 Number     Number       Type             X           Y           Z
 ---------------------------------------------------------------------
      1          6           0       -2.400444    0.334049    0.036843
      2          6           0       -1.711568   -0.873574   -0.208822
      3          6           0       -2.397941   -2.219664   -0.278362
      4          6           0       -0.343428   -0.878630   -0.436062
      5          1           0        0.180857   -1.808897   -0.629821
      6          6           0        0.389620    0.317107   -0.411655
      7          6           0       -0.293404    1.519288   -0.173442
      8          6           0        0.449412    2.803874   -0.261338
      9          6           0       -1.669059    1.513831    0.046041
     10         16           0       -4.176522    0.474740    0.411409
     11          8           0       -4.457817    1.919120    0.208665
     12          8           0       -4.824606   -0.407468   -0.600626
     13          7           0       -4.453346    0.115489    1.904400
     14          1           0       -4.391173   -0.898584    2.009524
     15          7           0        1.747276    0.345157   -0.666781
     16          6           0        2.469077    1.430465   -0.016550
     17          7           0        1.790406    2.672975   -0.370307
     18          1           0        2.208769   -0.557183   -0.569411
     19          9           0       -1.520772   -3.232801   -0.148862
     20          9           0       -3.020820   -2.417183   -1.453548
     21          9           0       -3.309928   -2.396137    0.694112
     22          1           0        2.337650    3.530393   -0.355213
     23          6           0        3.923344    1.481019   -0.469308
     24          6           0        4.669088    0.230587   -0.069537
     25          6           0        5.097843    0.058015    1.252439
     26          1           0        4.920966    0.849251    1.978158
     27          6           0        5.752156   -1.109787    1.640805
     28          1           0        6.082843   -1.227402    2.668926
     29          6           0        5.986140   -2.123949    0.709543
     30          1           0        6.498356   -3.033266    1.010657
     31          6           0        5.563619   -1.961397   -0.609380
     32          1           0        5.744359   -2.744207   -1.340569
     33          6           0        4.908213   -0.790324   -0.995145
     34          1           0        4.582969   -0.664279   -2.025626
     35          1           0        2.433480    1.300169    1.077097
     36          1           0        4.383084    2.358686   -0.001132
     37          1           0        3.949094    1.617037   -1.555566
     38          8           0       -0.119433    3.903167   -0.295557
     39          1           0       -2.174745    2.458172    0.217656
 ---------------------------------------------------------------------

 SCF Done:  E(RM062X) =  -1704.83314984     A.U. after    1 cycles

 The electronic state is 1-A.
 Alpha  occ. eigenvalues --  -90.13876 -25.30952 -25.30811 -25.30510 -19.63358
 Alpha  occ. eigenvalues --  -19.62061 -19.61981 -14.79860 -14.78991 -14.71873
 Alpha  occ. eigenvalues --  -10.82190 -10.67670 -10.63424 -10.62122 -10.60537
 Alpha  occ. eigenvalues --  -10.58967 -10.57819 -10.57738 -10.57666 -10.56526
 Alpha  occ. eigenvalues --  -10.55601 -10.55465 -10.55451 -10.55373 -10.55347
 Alpha  occ. eigenvalues --  -10.55295  -8.44689  -6.36933  -6.36844  -6.36770
 Alpha  occ. eigenvalues --   -1.47549  -1.38253  -1.37915  -1.21039  -1.17747
 Alpha  occ. eigenvalues --   -1.09835  -1.09386  -1.02383  -0.98673  -0.96657
 Alpha  occ. eigenvalues --   -0.96087  -0.91305  -0.89194  -0.86056  -0.84319
 Alpha  occ. eigenvalues --   -0.82855  -0.81270  -0.76161  -0.74056  -0.72813
 Alpha  occ. eigenvalues --   -0.70356  -0.69883  -0.68995  -0.68844  -0.68434
 Alpha  occ. eigenvalues --   -0.66242  -0.64271  -0.61496  -0.61090  -0.59060
 Alpha  occ. eigenvalues --   -0.58461  -0.58077  -0.57927  -0.56398  -0.55530
 Alpha  occ. eigenvalues --   -0.54875  -0.54616  -0.53862  -0.53047  -0.52720
 Alpha  occ. eigenvalues --   -0.52344  -0.51850  -0.51457  -0.51089  -0.50915
 Alpha  occ. eigenvalues --   -0.49516  -0.48764  -0.48389  -0.47590  -0.46860
 Alpha  occ. eigenvalues --   -0.45843  -0.44177  -0.43331  -0.42891  -0.41917
 Alpha  occ. eigenvalues --   -0.40071  -0.39898  -0.39569  -0.38888  -0.37519
 Alpha  occ. eigenvalues --   -0.36014  -0.35424  -0.33815  -0.33499  -0.33176
 Alpha  occ. eigenvalues --   -0.30986  -0.30770  -0.30232  -0.27133
 Alpha virt. eigenvalues --   -0.03547   0.00377   0.01289   0.01474   0.01759
 Alpha virt. eigenvalues --    0.02412   0.02771   0.03254   0.03804   0.03915
 Alpha virt. eigenvalues --    0.04481   0.04710   0.05003   0.05124   0.05561

 Mulliken charges:
               1
     1  C   -1.782135
     2  C    0.391704
     3  C    1.705465
     4  C   -1.449080
     5  H    0.286269
     6  C   -0.310735
     7  C    1.189563
     8  C    1.346763
     9  C   -0.774573
    10  S    1.593847
    11  O   -0.759649
    12  O   -0.707103
    13  N   -0.981992
    14  H    0.415105
    15  N   -0.473676
    16  C   -0.475840
    17  N   -0.588942
    18  H    0.480320
    19  F   -0.333675
    20  F   -0.256800
    21  F   -0.319565
    22  H    0.515894
    23  C   -0.491156
    24  C    0.084323
    25  C   -0.044018
    26  H    0.246079
    27  C   -0.269726
    28  H    0.246110
    29  C   -0.185779
    30  H    0.244182
    31  C   -0.301577
    32  H    0.246270
    33  C   -0.167423
    34  H    0.247326
    35  H    0.266918
    36  H    0.274656
    37  H    0.272089
    38  O   -0.668974
    39  H    0.289534
 Sum of Mulliken charges =  -1.00000

 Dipole moment (field-independent basis, Debye):
    X=             32.7207    Y=             -7.4252    Z=             -0.6797  Tot=             33.5595
 Quadrupole moment (field-independent basis, Debye-Ang):
   XX=           -265.0444   YY=           -186.0799   ZZ=           -167.1841
   XY=             22.5634   XZ=             11.3803   YZ=             -1.0415

  Exact polarizability:     388.740     -23.694     367.895      -8.495       9.084     287.160
 Approx polarizability:     308.649     -20.622     317.890      -5.343       9.661     256.399

                      1                      2                      3
                      A                      A                      A
 Frequencies --     20.6362                29.3538                46.8401
 Red. masses --      8.7149                 5.4578                 4.6864
 Frc consts  --      0.0022                 0.0028                 0.0061
 IR Inten    --      5.8439                 1.0057                 0.3916

                      4                      5                      6
                      A                      A                      A
 Frequencies --     52.5763                59.0936                84.2926
 Red. masses --      8.2587                 6.6611                 6.5806
 Frc consts  --      0.0135                 0.0137                 0.0275
 IR Inten    --      0.0431                 3.6282                 2.2789

                      7                      8                      9
                      A                      A                      A
 Frequencies --     97.1199               116.4774               131.7198
 Red. masses --     11.2678                 8.0580                 6.6507
 Frc consts  --      0.0626                 0.0644                 0.0680
 IR Inten    --      0.0531                 2.0487                 2.3122

                     10                     11                     12
                      A                      A                      A
 Frequencies --    148.0786               165.7953               181.5321
 Red. masses --      6.5954                12.1209                 6.9396
 Frc consts  --      0.0852                 0.1963                 0.1347
 IR Inten    --      1.9232                 1.4445                 6.2013

                     13                     14                     15
                      A                      A                      A
 Frequencies --    191.2161               219.8929               242.2753
 Red. masses --      7.0329                 7.4611                 6.4979
 Frc consts  --      0.1515                 0.2126                 0.2247
 IR Inten    --      2.8227                 1.0112                 9.7865

                     16                     17                     18
                      A                      A                      A
 Frequencies --    255.1060               267.0200               291.5388
 Red. masses --      8.0808                 8.3577                 6.0098
 Frc consts  --      0.3098                 0.3511                 0.3010
 IR Inten    --      1.2343                 7.3860                54.2701

                     19                     20                     21
                      A                      A                      A
 Frequencies --    317.0501               325.8909               358.3465
 Red. masses --      5.8478                 6.8491                 2.3068
 Frc consts  --      0.3463                 0.4286                 0.1745
 IR Inten    --     16.4472                13.2539                 6.0508

                     22                     23                     24
                      A                      A                      A
 Frequencies --    378.2774               416.8076               418.1089
 Red. masses --      3.3277                 2.8945                 3.1637
 Frc consts  --      0.2806                 0.2963                 0.3259
 IR Inten    --     63.9985                 3.1237                39.9192

                     25                     26                     27
                      A                      A                      A
 Frequencies --    441.4407               466.6106               468.1690
 Red. masses --      4.2449                 4.6712                 2.4007
 Frc consts  --      0.4874                 0.5992                 0.3100
 IR Inten    --     43.4883                 3.4778                37.6169

                     28                     29                     30
                      A                      A                      A
 Frequencies --    488.6527               508.2957               516.9773
 Red. masses --      2.6364                 4.0163                 9.2075
 Frc consts  --      0.3709                 0.6114                 1.4499
 IR Inten    --    193.0062                53.7116                27.2008

                     31                     32                     33
                      A                      A                      A
 Frequencies --    528.3328               532.7448               542.1631
 Red. masses --      5.1566                 4.0129                 1.8067
 Frc consts  --      0.8481                 0.6710                 0.3129
 IR Inten    --     10.8499                35.0467               160.4136

                     34                     35                     36
                      A                      A                      A
 Frequencies --    573.0297               573.4319               586.2210
 Red. masses --      6.0987                 5.2016                 6.9240
 Frc consts  --      1.1799                 1.0078                 1.4019
 IR Inten    --    246.0956               142.8297               201.1029

                     37                     38                     39
                      A                      A                      A
 Frequencies --    595.5633               613.8606               629.2898
 Red. masses --      7.2518                 2.1766                 6.2470
 Frc consts  --      1.5155                 0.4833                 1.4575
 IR Inten    --      7.8993               129.1644                 0.3096

                     40                     41                     42
                      A                      A                      A
 Frequencies --    658.6538               670.3716               683.7228
 Red. masses --      3.9986                 6.3804                 7.0394
 Frc consts  --      1.0220                 1.6894                 1.9389
 IR Inten    --     21.1318                59.7405                10.3371

                     43                     44                     45
                      A                      A                      A
 Frequencies --    717.5378               746.3584               750.9724
 Red. masses --      1.9921                 4.8964                 4.1228
 Frc consts  --      0.6043                 1.6070                 1.3699
 IR Inten    --     83.9090                 4.9099                 5.7230

                     46                     47                     48
                      A                      A                      A
 Frequencies --    766.7203               791.3314               801.3890
 Red. masses --      2.8326                 3.9431                 5.9064
 Frc consts  --      0.9811                 1.4548                 2.2349
 IR Inten    --     84.4416                25.5148                26.3013

                     49                     50                     51
                      A                      A                      A
 Frequencies --    841.0685               852.7231               880.6007
 Red. masses --      4.7123                 3.7208                 1.2475
 Frc consts  --      1.9640                 1.5941                 0.5700
 IR Inten    --     48.7768                 5.3266                 0.1012

                     52                     53                     54
                      A                      A                      A
 Frequencies --    908.7912               921.6017               949.8639
 Red. masses --      1.5793                 2.2949                 3.4697
 Frc consts  --      0.7685                 1.1484                 1.8444
 IR Inten    --     71.7558                16.4923               111.0685

                     55                     56                     57
                      A                      A                      A
 Frequencies --    959.0251               961.8620               998.9595
 Red. masses --      1.8417                 1.5082                 6.9007
 Frc consts  --      0.9980                 0.8221                 4.0573
 IR Inten    --    121.0548                18.9534               394.8480

                     58                     59                     60
                      A                      A                      A
 Frequencies --   1013.6949              1015.3711              1032.4742
 Red. masses --      1.3753                 5.9311                 1.2988
 Frc consts  --      0.8326                 3.6028                 0.8157
 IR Inten    --      0.0593                 0.8303                 0.0120

                     61                     62                     63
                      A                      A                      A
 Frequencies --   1045.1189              1062.0539              1075.1945
 Red. masses --      2.5309                 2.1605                 3.9829
 Frc consts  --      1.6287                 1.4358                 2.7128
 IR Inten    --     11.9037                 8.8804               643.5886

                     64                     65                     66
                      A                      A                      A
 Frequencies --   1101.5675              1121.5226              1128.9523
 Red. masses --      1.9823                 1.7079                 2.5492
 Frc consts  --      1.4172                 1.2657                 1.9143
 IR Inten    --     30.6272                27.5396               193.0370

                     67                     68                     69
                      A                      A                      A
 Frequencies --   1130.7777              1159.6917              1170.6964
 Red. masses --      2.3178                 6.2498                 1.1011
 Frc consts  --      1.7461                 4.9522                 0.8892
 IR Inten    --    116.9338                35.6868                 0.1898

                     70                     71                     72
                      A                      A                      A
 Frequencies --   1177.5058              1179.9847              1197.3702
 Red. masses --     12.2165                 5.9694                 1.1199
 Frc consts  --      9.9798                 4.8970                 0.9460
 IR Inten    --    553.5608               730.9431                 0.0585

                     73                     74                     75
                      A                      A                      A
 Frequencies --   1206.5693              1209.3047              1233.6364
 Red. masses --      3.2381                 2.8400                 1.4757
 Frc consts  --      2.7774                 2.4470                 1.3232
 IR Inten    --    221.1936                41.9300                45.7025

                     76                     77                     78
                      A                      A                      A
 Frequencies --   1245.9193              1272.6146              1282.1030
 Red. masses --      2.3142                 2.6091                 1.2888
 Frc consts  --      2.1165                 2.4896                 1.2482
 IR Inten    --     45.9834               183.9007                35.2646

                     79                     80                     81
                      A                      A                      A
 Frequencies --   1333.2212              1340.0176              1347.8129
 Red. masses --      4.2029                 1.4323                 4.0265
 Frc consts  --      4.4015                 1.5153                 4.3096
 IR Inten    --     16.1297               130.6827                20.6249

                     82                     83                     84
                      A                      A                      A
 Frequencies --   1350.8598              1358.5981              1367.1827
 Red. masses --      5.2138                 1.3322                 1.9337
 Frc consts  --      5.6056                 1.4488                 2.1296
 IR Inten    --    424.0958                 1.9962                25.1482

                     85                     86                     87
                      A                      A                      A
 Frequencies --   1391.5877              1405.4260              1468.6234
 Red. masses --      1.8758                 1.7086                 2.4646
 Frc consts  --      2.1403                 1.9885                 3.1320
 IR Inten    --     33.5645                24.6949               129.3687

                     88                     89                     90
                      A                      A                      A
 Frequencies --   1482.6823              1487.3179              1498.6449
 Red. masses --      2.0328                 1.2444                 2.1817
 Frc consts  --      2.6330                 1.6218                 2.8869
 IR Inten    --     33.0109                 4.4776                11.7310

                     91                     92                     93
                      A                      A                      A
 Frequencies --   1540.4246              1542.0536              1545.1012
 Red. masses --      3.3972                 3.1665                 2.4685
 Frc consts  --      4.7495                 4.4364                 3.4721
 IR Inten    --    633.1947               358.0749                26.9631

                     94                     95                     96
                      A                      A                      A
 Frequencies --   1644.3042              1664.6749              1685.1815
 Red. masses --      7.1740                 6.0553                 6.2115
 Frc consts  --     11.4282                 9.8866                10.3929
 IR Inten    --     40.2956                 1.0249                34.2996

                     97                     98                     99
                      A                      A                      A
 Frequencies --   1694.0408              1702.4806              3030.4082
 Red. masses --      7.0798                 8.0849                 1.0831
 Frc consts  --     11.9706                13.8067                 5.8603
 IR Inten    --    639.2913              1027.3837                94.9575

                    100                    101                    102
                      A                      A                      A
 Frequencies --   3095.2888              3149.0749              3210.8944
 Red. masses --      1.0604                 1.1060                 1.0894
 Frc consts  --      5.9856                 6.4618                 6.6175
 IR Inten    --     26.1031                20.4480                 8.7674

                    103                    104                    105
                      A                      A                      A
 Frequencies --   3213.9570              3225.3577              3234.1679
 Red. masses --      1.0893                 1.0901                 1.0945
 Frc consts  --      6.6296                 6.6814                 6.7452
 IR Inten    --      6.9270                 4.0786                28.1706

                    106                    107                    108
                      A                      A                      A
 Frequencies --   3243.2457              3252.7860              3260.8030
 Red. masses --      1.0987                 1.0920                 1.0906
 Frc consts  --      6.8091                 6.8073                 6.8324
 IR Inten    --     14.7168                 4.1137                10.0288

                    109                    110                    111
                      A                      A                      A
 Frequencies --   3540.4238              3564.2878              3578.3447
 Red. masses --      1.0729                 1.0770                 1.0785
 Frc consts  --      7.9233                 8.0614                 8.1362
 IR Inten    --     47.4995               161.5496               173.1382

 - Thermochemistry -
 -------------------
 Temperature   298.150 Kelvin.  Pressure   1.00000 Atm.
 Atom     1 has atomic number  6 and mass  12.00000

 Molecular mass:   384.06297 amu.
 Principal axes and moments of inertia in atomic units:
                           1         2         3
     Eigenvalues --  5429.83809********************
           X            0.99995  -0.01015  -0.00028
           Y            0.01015   0.99994  -0.00382
           Z            0.00032   0.00382   0.99999
 This molecule is an asymmetric top.
 Rotational symmetry number  1.
 Warning -- assumption of classical behavior for rotation
           may cause significant error
 Rotational temperatures (Kelvin)      0.01595     0.00482     0.00398
 Rotational constants (GHZ):           0.33237     0.10042     0.08299
 Zero-point vibrational energy     743196.7 (Joules/Mol)
                                  177.62827 (Kcal/Mol)
 Warning -- explicit consideration of  38 degrees of freedom as
           vibrations may cause significant error
 Vibrational temperatures:     29.69    42.23    67.39    75.65    85.02
          (Kelvin)            121.28   139.73   167.58   189.52   213.05
                              238.54   261.18   275.12   316.38   348.58
                              367.04   384.18   419.46   456.16   468.88
                              515.58   544.26   599.69   601.57   635.13
                              671.35   673.59   703.06   731.32   743.82
                              760.15   766.50   780.05   824.46   825.04
                              843.44   856.88   883.21   905.41   947.66
                              964.52   983.72  1032.38  1073.84  1080.48
                             1103.14  1138.55  1153.02  1210.11  1226.88
                             1266.99  1307.55  1325.98  1366.64  1379.82
                             1383.90  1437.28  1458.48  1460.89  1485.50
                             1503.69  1528.06  1546.97  1584.91  1613.62
                             1624.31  1626.94  1668.54  1684.37  1694.17
                             1697.73  1722.75  1735.98  1739.92  1774.93
                             1792.60  1831.01  1844.66  1918.21  1927.99
                             1939.20  1943.59  1954.72  1967.07  2002.18
                             2022.09  2113.02  2133.25  2139.92  2156.22
                             2216.33  2218.67  2223.06  2365.79  2395.10
                             2424.60  2437.35  2449.49  4360.08  4453.43
                             4530.82  4619.76  4624.17  4640.57  4653.25
                             4666.31  4680.03  4691.57  5093.88  5128.22
                             5148.44

 Zero-point correction=                           0.283069 (Hartree/Particle)
 Thermal correction to Energy=                    0.304896
 Thermal correction to Enthalpy=                  0.305840
 Thermal correction to Gibbs Free Energy=         0.230603
 Sum of electronic and zero-point Energies=          -1704.550081
 Sum of electronic and thermal Energies=             -1704.528254
 Sum of electronic and thermal Enthalpies=           -1704.527310
 Sum of electronic and thermal Free Energies=        -1704.602547

                     E (Thermal)             CV                S
                      KCal/Mol        Cal/Mol-Kelvin    Cal/Mol-Kelvin
 Total                  191.325             84.795            158.349
 Electronic               0.000              0.000              0.000
 Translational            0.889              2.981             43.729
 Rotational               0.889              2.981             36.005
 Vibrational            189.547             78.833             78.615
 Vibration     1          0.593              1.986              6.572
 Vibration     2          0.593              1.984              5.873
 Vibration     3          0.595              1.979              4.947
 Vibration     4          0.596              1.977              4.718
 Vibration     5          0.596              1.974              4.487
 Vibration     6          0.601              1.960              3.788
 Vibration     7          0.603              1.951              3.511
 Vibration     8          0.608              1.936              3.158
 Vibration     9          0.612              1.922              2.921
 Vibration    10          0.617              1.905              2.697
 Vibration    11          0.624              1.885              2.483
 Vibration    12          0.630              1.865              2.313
 Vibration    13          0.634              1.852              2.216
 Vibration    14          0.647              1.811              1.960
 Vibration    15          0.658              1.776              1.786
 Vibration    16          0.665              1.754              1.695
 Vibration    17          0.672              1.734              1.615
 Vibration    18          0.687              1.689              1.465
 Vibration    19          0.704              1.641              1.325
 Vibration    20          0.710              1.624              1.280
 Vibration    21          0.733              1.558              1.129
 Vibration    22          0.749              1.516              1.046
 Vibration    23          0.780              1.434              0.903
 Vibration    24          0.781              1.431              0.898
 Vibration    25          0.801              1.380              0.822
 Vibration    26          0.824              1.324              0.747
 Vibration    27          0.825              1.321              0.743
 Vibration    28          0.845              1.275              0.687
 Vibration    29          0.863              1.232              0.638
 Vibration    30          0.872              1.212              0.617
 Vibration    31          0.883              1.187              0.591
 Vibration    32          0.888              1.178              0.581
 Vibration    33          0.897              1.157              0.561
 Vibration    34          0.929              1.090              0.498
 Vibration    35          0.930              1.089              0.498
 Vibration    36          0.943              1.061              0.474
 Vibration    37          0.953              1.041              0.457
 Vibration    38          0.973              1.003              0.426

 Optimization completed.
    -- Stationary point found.
 Normal termination of Gaussian 16 at Fri Jul  1 10:40:47 2022.
