 Gaussian 16, Revision C.01,
 Gaussian 16:  ES64L-G16RevC.01  3-Jul-2019

 -----------------------------------------------------
 #m062X/gen 6D OPT Freq=noraman SCRF=(SMD,Solvent=h2o)
 -----------------------------------------------------

 ---------------
 A.34.smd.a1.smd
 ---------------
 Symbolic Z-matrix:
 Charge = -1 Multiplicity = 1

 SCF Done:  E(RM062X) =  -2515.62096924     A.U. after   17 cycles
 Optimization completed.
    -- Stationary point found.
 Normal termination of Gaussian 16 at Fri Jul  1 00:31:18 2022.

 ------------------------------------------------------------------
 #N Geom=AllCheck Guess=TCheck SCRF=Check GenChk RM062X/ChkBas Freq
 ------------------------------------------------------------------

 Structure from the checkpoint file:  "/jobfs/48973455.gadi-pbs/Gau-3125694.chk"
 ---------------
 A.34.smd.a1.smd
 ---------------
 Charge = -1 Multiplicity = 1

                         Standard orientation:
 ---------------------------------------------------------------------
 Center     Atomic      Atomic             Coordinates (Angstroms)
 Number     Number       Type             X           Y           Z
 ---------------------------------------------------------------------
      1          6           0        2.054311   -0.187026   -0.052602
      2          6           0        1.730300    1.134362   -0.400349
      3         17           0        2.916874    2.410291   -0.297726
      4          6           0        0.463025    1.496434   -0.823788
      5          1           0        0.238547    2.527255   -1.080358
      6          6           0       -0.537310    0.519574   -0.910096
      7          6           0       -0.227921   -0.810246   -0.576632
      8          6           0       -1.260373   -1.856182   -0.747587
      9          6           0        1.056700   -1.146220   -0.153101
     10         16           0        3.699606   -0.684285    0.524236
     11          8           0        3.547387   -2.137648    0.786509
     12          8           0        4.582513   -0.371053   -0.637677
     13          7           0        4.063097    0.041545    1.856102
     14          1           0        4.347003    0.998018    1.635322
     15          7           0       -1.804490    0.823618   -1.372227
     16          6           0       -2.887622   -0.012592   -0.912329
     17          7           0       -2.497239   -1.396974   -1.080822
     18          1           0       -2.024507    1.813451   -1.433746
     19          8           0       -1.018793   -3.064463   -0.658815
     20          1           0        1.277599   -2.178956    0.095684
     21          1           0       -3.234559   -2.092107   -1.154124
     22          6           0       -3.251801    0.270932    0.567904
     23          1           0       -3.771249    0.179710   -1.523430
     24          1           0       -2.416481    0.074312    1.240731
     25         17           0       -4.603270   -0.780238    1.072377
     26         17           0       -3.705623    1.986455    0.763121
 ---------------------------------------------------------------------

 SCF Done:  E(RM062X) =  -2515.62096924     A.U. after    1 cycles

 The electronic state is 1-A.
 Alpha  occ. eigenvalues -- -102.68574-102.68490-102.68408 -90.13992 -19.63732
 Alpha  occ. eigenvalues --  -19.62208 -19.62082 -14.80856 -14.80226 -14.72011
 Alpha  occ. eigenvalues --  -10.68232 -10.67906 -10.65970 -10.64206 -10.62728
 Alpha  occ. eigenvalues --  -10.58726 -10.58130 -10.57756 -10.57519  -9.83221
 Alpha  occ. eigenvalues --   -9.83186  -9.83102  -8.44804  -7.55622  -7.55587
 Alpha  occ. eigenvalues --   -7.55505  -7.54969  -7.54936  -7.54916  -7.54898
 Alpha  occ. eigenvalues --   -7.54829  -7.54813  -6.37048  -6.36960  -6.36887
 Alpha  occ. eigenvalues --   -1.21115  -1.18357  -1.11400  -1.09444  -1.03535
 Alpha  occ. eigenvalues --   -1.01436  -1.00775  -0.96248  -0.95291  -0.93033
 Alpha  occ. eigenvalues --   -0.87975  -0.86356  -0.81649  -0.75234  -0.73999
 Alpha  occ. eigenvalues --   -0.72219  -0.69405  -0.65404  -0.63572  -0.62499
 Alpha  occ. eigenvalues --   -0.58763  -0.58175  -0.57154  -0.55703  -0.55469
 Alpha  occ. eigenvalues --   -0.54730  -0.52652  -0.51984  -0.51760  -0.51261
 Alpha  occ. eigenvalues --   -0.50382  -0.49651  -0.48569  -0.47371  -0.44047
 Alpha  occ. eigenvalues --   -0.43438  -0.42761  -0.40827  -0.40152  -0.39771
 Alpha  occ. eigenvalues --   -0.39205  -0.39075  -0.38335  -0.37675  -0.37468
 Alpha  occ. eigenvalues --   -0.36289  -0.35482  -0.34285  -0.33191  -0.31906
 Alpha  occ. eigenvalues --   -0.30872  -0.27542
 Alpha virt. eigenvalues --   -0.03134   0.00387   0.01076   0.01716   0.02048
 Alpha virt. eigenvalues --    0.02485   0.03211   0.03589   0.04321   0.04486
 Alpha virt. eigenvalues --    0.04997   0.05511   0.05661   0.06327   0.06668

 Mulliken charges:
               1
     1  C   -2.655385
     2  C    1.387829
     3  Cl   0.212492
     4  C   -1.352975
     5  H    0.286916
     6  C    0.388490
     7  C    1.048474
     8  C    0.837377
     9  C   -0.407277
    10  S    1.530615
    11  O   -0.784436
    12  O   -0.644273
    13  N   -0.885736
    14  H    0.402848
    15  N   -0.486146
    16  C   -0.494557
    17  N   -0.564660
    18  H    0.499915
    19  O   -0.654237
    20  H    0.293615
    21  H    0.526430
    22  C   -0.301333
    23  H    0.323998
    24  H    0.382118
    25  Cl   0.053893
    26  Cl   0.056006
 Sum of Mulliken charges =  -1.00000

 Dipole moment (field-independent basis, Debye):
    X=            -24.1879    Y=             11.3414    Z=             -5.1103  Tot=             27.1992
 Quadrupole moment (field-independent basis, Debye-Ang):
   XX=           -228.6377   YY=           -162.7741   ZZ=           -154.5794
   XY=             21.3350   XZ=             -3.3192   YZ=             -0.7379

  Exact polarizability:     336.375      13.663     303.513      26.329      -9.862     198.768
 Approx polarizability:     271.956      13.043     270.274      19.675     -10.351     181.616

                      1                      2                      3
                      A                      A                      A
 Frequencies --     27.5489                38.1030                46.1339
 Red. masses --     16.3969                16.3816                15.1114
 Frc consts  --      0.0073                 0.0140                 0.0189
 IR Inten    --      2.9087                 4.1692                 1.0733

                      4                      5                      6
                      A                      A                      A
 Frequencies --     61.9893                84.2042               120.9481
 Red. masses --     11.8165                14.0527                10.0905
 Frc consts  --      0.0268                 0.0587                 0.0870
 IR Inten    --      0.2041                 4.9472                 2.2272

                      7                      8                      9
                      A                      A                      A
 Frequencies --    138.5773               180.8904               191.9916
 Red. masses --     11.8071                 7.6486                18.5918
 Frc consts  --      0.1336                 0.1475                 0.4038
 IR Inten    --      1.5713                 2.1611                 1.4020

                     10                     11                     12
                      A                      A                      A
 Frequencies --    213.8248               239.9771               257.9363
 Red. masses --     10.9340                 7.1920                 7.7406
 Frc consts  --      0.2945                 0.2440                 0.3034
 IR Inten    --      2.0080                11.0019                 7.6592

                     13                     14                     15
                      A                      A                      A
 Frequencies --    261.0972               279.9284               310.7575
 Red. masses --      7.7380                 8.8973                 7.8766
 Frc consts  --      0.3108                 0.4108                 0.4482
 IR Inten    --      5.7385                26.0889                 8.3029

                     16                     17                     18
                      A                      A                      A
 Frequencies --    343.5797               382.1443               388.0786
 Red. masses --      9.6754                 3.4434                 7.1073
 Frc consts  --      0.6729                 0.2963                 0.6307
 IR Inten    --     20.7911                71.5624                37.2134

                     19                     20                     21
                      A                      A                      A
 Frequencies --    409.1522               438.4796               456.6001
 Red. masses --      4.4631                 4.6158                 3.5238
 Frc consts  --      0.4402                 0.5229                 0.4329
 IR Inten    --     55.4507                19.5358                10.8790

                     22                     23                     24
                      A                      A                      A
 Frequencies --    480.1801               497.9203               513.2211
 Red. masses --      2.8198                 2.3347                 3.2252
 Frc consts  --      0.3831                 0.3410                 0.5005
 IR Inten    --     60.9255               124.3191               220.1797

                     25                     26                     27
                      A                      A                      A
 Frequencies --    519.9526               537.7980               554.5370
 Red. masses --      5.6289                 2.2502                 2.9529
 Frc consts  --      0.8966                 0.3834                 0.5350
 IR Inten    --     36.0428               471.9336                79.9548

                     28                     29                     30
                      A                      A                      A
 Frequencies --    561.8732               614.3710               616.1356
 Red. masses --      3.1756                 2.8251                 6.9251
 Frc consts  --      0.5907                 0.6283                 1.5489
 IR Inten    --    110.6847                51.9910                60.3807

                     31                     32                     33
                      A                      A                      A
 Frequencies --    657.4200               679.3429               716.0205
 Red. masses --      7.5114                 8.0517                 4.5255
 Frc consts  --      1.9127                 2.1894                 1.3670
 IR Inten    --     35.7515                47.2787                 5.8822

                     34                     35                     36
                      A                      A                      A
 Frequencies --    765.7868               783.3445               796.3936
 Red. masses --      7.4141                 5.6751                 6.4379
 Frc consts  --      2.5617                 2.0518                 2.4058
 IR Inten    --     68.9011                 9.1028                65.5610

                     37                     38                     39
                      A                      A                      A
 Frequencies --    819.1932               884.0601               907.0551
 Red. masses --      7.3041                 1.5584                 5.4033
 Frc consts  --      2.8879                 0.7176                 2.6193
 IR Inten    --    173.9394                56.1276                13.7744

                     40                     41                     42
                      A                      A                      A
 Frequencies --    935.6298               954.1779               983.6761
 Red. masses --      7.0160                 1.4634                 8.4115
 Frc consts  --      3.6187                 0.7850                 4.7954
 IR Inten    --     66.6509                29.5129               534.6807

                     43                     44                     45
                      A                      A                      A
 Frequencies --   1011.4714              1074.7300              1078.9312
 Red. masses --      3.7206                 4.7648                 3.8063
 Frc consts  --      2.2427                 3.2426                 2.6106
 IR Inten    --      6.7946               690.5797                22.7931

                     46                     47                     48
                      A                      A                      A
 Frequencies --   1122.2245              1128.2779              1151.5182
 Red. masses --      2.5190                 2.5958                 2.0914
 Frc consts  --      1.8691                 1.9470                 1.6339
 IR Inten    --     33.2371               347.3785                91.9026

                     49                     50                     51
                      A                      A                      A
 Frequencies --   1195.1249              1207.9439              1260.8324
 Red. masses --      2.5304                 2.5862                 1.2643
 Frc consts  --      2.1294                 2.2234                 1.1842
 IR Inten    --    232.9441               221.6041                21.1313

                     52                     53                     54
                      A                      A                      A
 Frequencies --   1288.3775              1292.1773              1295.5245
 Red. masses --      2.4519                 1.4192                 1.1691
 Frc consts  --      2.3980                 1.3962                 1.1561
 IR Inten    --    164.7797               152.4843                 4.7097

                     55                     56                     57
                      A                      A                      A
 Frequencies --   1344.7286              1345.4605              1380.3455
 Red. masses --      3.6842                 2.3189                 2.8510
 Frc consts  --      3.9252                 2.4733                 3.2005
 IR Inten    --     48.9572               126.6337                50.0250

                     58                     59                     60
                      A                      A                      A
 Frequencies --   1415.6578              1450.9302              1485.1112
 Red. masses --      1.2577                 2.5421                 1.8708
 Frc consts  --      1.4851                 3.1531                 2.4310
 IR Inten    --      5.0942                12.4658               140.8526

                     61                     62                     63
                      A                      A                      A
 Frequencies --   1516.9672              1545.2426              1643.5228
 Red. masses --      3.2046                 3.2934                 7.0953
 Frc consts  --      4.3449                 4.6332                11.2921
 IR Inten    --     11.0436               579.8758                 8.6135

                     64                     65                     66
                      A                      A                      A
 Frequencies --   1680.1045              1706.1389              3175.4604
 Red. masses --      7.0215                 8.7219                 1.0897
 Frc consts  --     11.6775                14.9586                 6.4739
 IR Inten    --    834.1282              1392.4288                 9.3280

                     67                     68                     69
                      A                      A                      A
 Frequencies --   3199.3290              3245.9634              3257.2596
 Red. masses --      1.0884                 1.0935                 1.0911
 Frc consts  --      6.5639                 6.7882                 6.8205
 IR Inten    --      6.3461                 2.2201                12.2313

                     70                     71                     72
                      A                      A                      A
 Frequencies --   3527.3493              3594.2512              3602.8730
 Red. masses --      1.0734                 1.0781                 1.0785
 Frc consts  --      7.8685                 8.2056                 8.2485
 IR Inten    --     41.3439               168.0427               194.4816

 - Thermochemistry -
 -------------------
 Temperature   298.150 Kelvin.  Pressure   1.00000 Atm.
 Atom     1 has atomic number  6 and mass  12.00000

 Molecular mass:   341.92737 amu.
 Principal axes and moments of inertia in atomic units:
                           1         2         3
     Eigenvalues --  3621.63417********************
           X            0.99997   0.00047   0.00809
           Y           -0.00044   1.00000  -0.00302
           Z           -0.00810   0.00302   0.99996
 This molecule is an asymmetric top.
 Rotational symmetry number  1.
 Warning -- assumption of classical behavior for rotation
           may cause significant error
 Rotational temperatures (Kelvin)      0.02392     0.00688     0.00598
 Rotational constants (GHZ):           0.49832     0.14336     0.12466
 Zero-point vibrational energy     441863.8 (Joules/Mol)
                                  105.60799 (Kcal/Mol)
 Warning -- explicit consideration of  30 degrees of freedom as
           vibrations may cause significant error
 Vibrational temperatures:     39.64    54.82    66.38    89.19   121.15
          (Kelvin)            174.02   199.38   260.26   276.23   307.65
                              345.27   371.11   375.66   402.75   447.11
                              494.33   549.82   558.36   588.68   630.87
                              656.95   690.87   716.40   738.41   748.10
                              773.77   797.86   808.41   883.94   886.48
                              945.88   977.42  1030.19  1101.80  1127.06
                             1145.83  1178.64  1271.97  1305.05  1346.16
                             1372.85  1415.29  1455.28  1546.30  1552.34
                             1614.63  1623.34  1656.78  1719.52  1737.96
                             1814.06  1853.69  1859.15  1863.97  1934.76
                             1935.82  1986.01  2036.82  2087.56  2136.74
                             2182.58  2223.26  2364.66  2417.30  2454.75
                             4568.78  4603.12  4670.22  4686.47  5075.07
                             5171.33  5183.73

 Zero-point correction=                           0.168297 (Hartree/Particle)
 Thermal correction to Energy=                    0.185483
 Thermal correction to Enthalpy=                  0.186427
 Thermal correction to Gibbs Free Energy=         0.121210
 Sum of electronic and zero-point Energies=          -2515.452672
 Sum of electronic and thermal Energies=             -2515.435487
 Sum of electronic and thermal Enthalpies=           -2515.434542
 Sum of electronic and thermal Free Energies=        -2515.499759

                     E (Thermal)             CV                S
                      KCal/Mol        Cal/Mol-Kelvin    Cal/Mol-Kelvin
 Total                  116.392             64.200            137.259
 Electronic               0.000              0.000              0.000
 Translational            0.889              2.981             43.383
 Rotational               0.889              2.981             34.844
 Vibrational            114.615             58.238             59.032
 Vibration     1          0.593              1.984              5.999
 Vibration     2          0.594              1.982              5.355
 Vibration     3          0.595              1.979              4.977
 Vibration     4          0.597              1.972              4.393
 Vibration     5          0.601              1.960              3.790
 Vibration     6          0.609              1.932              3.085
 Vibration     7          0.614              1.915              2.823
 Vibration     8          0.630              1.866              2.319
 Vibration     9          0.634              1.851              2.209
 Vibration    10          0.644              1.820              2.011
 Vibration    11          0.657              1.779              1.803
 Vibration    12          0.667              1.749              1.676
 Vibration    13          0.669              1.744              1.654
 Vibration    14          0.680              1.711              1.534
 Vibration    15          0.700              1.653              1.358
 Vibration    16          0.722              1.588              1.195
 Vibration    17          0.752              1.508              1.031
 Vibration    18          0.756              1.496              1.008
 Vibration    19          0.774              1.450              0.930
 Vibration    20          0.799              1.386              0.831
 Vibration    21          0.815              1.346              0.776
 Vibration    22          0.837              1.294              0.710
 Vibration    23          0.853              1.255              0.663
 Vibration    24          0.868              1.221              0.626
 Vibration    25          0.875              1.206              0.610
 Vibration    26          0.893              1.166              0.570
 Vibration    27          0.910              1.130              0.535
 Vibration    28          0.918              1.114              0.520
 Vibration    29          0.974              1.001              0.426
 Vibration    30          0.976              0.998              0.423

 Optimization completed.
    -- Stationary point found.
 Normal termination of Gaussian 16 at Fri Jul  1 00:43:49 2022.
