 Gaussian 16, Revision C.01,
 Gaussian 16:  ES64L-G16RevC.01  3-Jul-2019

 -----------------------------------------------------
 #m062X/gen 6D OPT Freq=noraman SCRF=(SMD,Solvent=h2o)
 -----------------------------------------------------

 -------------------
 A.35.smd.a1d3e3.smd
 -------------------
 Symbolic Z-matrix:
 Charge = -1 Multiplicity = 1

 SCF Done:  E(RM062X) =  -2845.32185071     A.U. after   16 cycles
 SCF Done:  E(RM062X) =  -2845.34189675     A.U. after   16 cycles
 SCF Done:  E(RM062X) =  -2845.34026457     A.U. after   14 cycles
 SCF Done:  E(RM062X) =  -2845.34710145     A.U. after   14 cycles
 SCF Done:  E(RM062X) =  -2845.34767824     A.U. after   14 cycles
 SCF Done:  E(RM062X) =  -2845.34770413     A.U. after   15 cycles
 SCF Done:  E(RM062X) =  -2845.34817131     A.U. after   13 cycles
 SCF Done:  E(RM062X) =  -2845.34825300     A.U. after   13 cycles
 SCF Done:  E(RM062X) =  -2845.34827468     A.U. after   12 cycles
 SCF Done:  E(RM062X) =  -2845.34830333     A.U. after   13 cycles
 SCF Done:  E(RM062X) =  -2845.34830832     A.U. after   11 cycles
 SCF Done:  E(RM062X) =  -2845.34830786     A.U. after   12 cycles
 SCF Done:  E(RM062X) =  -2845.34830387     A.U. after   12 cycles
 SCF Done:  E(RM062X) =  -2845.34831139     A.U. after   12 cycles
 SCF Done:  E(RM062X) =  -2845.34831245     A.U. after   11 cycles
 SCF Done:  E(RM062X) =  -2845.34831265     A.U. after    9 cycles
 SCF Done:  E(RM062X) =  -2845.34831272     A.U. after    9 cycles
 SCF Done:  E(RM062X) =  -2845.34831272     A.U. after    9 cycles
 Optimization completed.
    -- Stationary point found.
 Normal termination of Gaussian 16 at Fri Jul  1 19:00:18 2022.

 ------------------------------------------------------------------
 #N Geom=AllCheck Guess=TCheck SCRF=Check GenChk RM062X/ChkBas Freq
 ------------------------------------------------------------------

 Structure from the checkpoint file:  "/jobfs/49943037.gadi-pbs/Gau-2509400.chk"
 -------------------
 A.35.smd.a1d3e3.smd
 -------------------
 Charge = -1 Multiplicity = 1

                         Standard orientation:
 ---------------------------------------------------------------------
 Center     Atomic      Atomic             Coordinates (Angstroms)
 Number     Number       Type             X           Y           Z
 ---------------------------------------------------------------------
      1          6           0       -3.205242   -0.197829    0.092275
      2          6           0       -2.673334   -1.399008   -0.408315
      3         17           0       -3.664713   -2.826980   -0.548824
      4          6           0       -1.354956   -1.514640   -0.801380
      5          1           0       -0.975145   -2.455139   -1.189114
      6          6           0       -0.484979   -0.412655   -0.701326
      7          6           0       -1.018904    0.780233   -0.192499
      8         16           0       -0.006081    2.206755   -0.004520
      9          6           0       -2.354127    0.889644    0.193092
     10          1           0       -2.740199    1.832714    0.569547
     11         16           0       -4.931614   -0.009408    0.615478
     12          8           0       -4.992027    1.404160    1.066172
     13          8           0       -5.701884   -0.279766   -0.633172
     14          7           0       -5.251884   -0.948835    1.816973
     15          1           0       -5.393835   -1.895104    1.457715
     16          7           0        0.809394   -0.504241   -1.140758
     17          6           0        1.796106    0.462747   -0.704246
     18          7           0        1.278140    1.819623   -1.025254
     19          8           0       -0.683746    3.381425   -0.558562
     20          8           0        0.439031    2.327696    1.392277
     21          1           0        1.164449   -1.449367   -1.265630
     22          6           0        2.299619    2.890398   -0.947624
     23          6           0        3.115336    0.222959   -1.432101
     24         16           0        3.739902   -1.483597   -1.288501
     25          6           0        3.897507   -1.718912    0.502654
     26          6           0        5.013066   -0.929218    1.138569
     27          1           0        1.965770    0.396267    0.383235
     28          1           0        2.933536    2.824534   -1.830967
     29          1           0        2.908322    2.810301   -0.040088
     30          1           0        1.797813    3.858863   -0.967429
     31          1           0        3.877094    0.914742   -1.077233
     32          1           0        2.978807    0.374493   -2.508012
     33          1           0        4.121473   -2.779384    0.647981
     34          1           0        2.969763   -1.492327    1.034671
     35          9           0        6.213550   -1.177348    0.587067
     36          9           0        5.117970   -1.222678    2.449309
     37          9           0        4.816908    0.402453    1.055956
 ---------------------------------------------------------------------

 SCF Done:  E(RM062X) =  -2845.34831272     A.U. after    1 cycles

 The electronic state is 1-A.
 Alpha  occ. eigenvalues -- -102.68755 -90.18039 -90.14194 -89.94388 -25.30772
 Alpha  occ. eigenvalues --  -25.30710 -25.30682 -19.66393 -19.66167 -19.62362
 Alpha  occ. eigenvalues --  -19.62243 -14.81919 -14.80018 -14.72166 -10.81573
 Alpha  occ. eigenvalues --  -10.64929 -10.64531 -10.63879 -10.60399 -10.60104
 Alpha  occ. eigenvalues --  -10.59366 -10.59217 -10.59139 -10.58327 -10.57972
 Alpha  occ. eigenvalues --   -9.83400  -8.49166  -8.45000  -8.28814  -7.55804
 Alpha  occ. eigenvalues --   -7.55145  -7.55113  -6.41339  -6.41311  -6.41234
 Alpha  occ. eigenvalues --   -6.37242  -6.37157  -6.37083  -6.20900  -6.20634
 Alpha  occ. eigenvalues --   -6.20209  -1.47296  -1.37995  -1.37943  -1.26106
 Alpha  occ. eigenvalues --   -1.21293  -1.14165  -1.11027  -1.09622  -1.04674
 Alpha  occ. eigenvalues --   -1.01405  -0.96646  -0.96331  -0.93978  -0.89773
 Alpha  occ. eigenvalues --   -0.88173  -0.86067  -0.81960  -0.80755  -0.77172
 Alpha  occ. eigenvalues --   -0.74666  -0.73389  -0.71617  -0.69942  -0.69753
 Alpha  occ. eigenvalues --   -0.69143  -0.65506  -0.64739  -0.63748  -0.62064
 Alpha  occ. eigenvalues --   -0.60699  -0.60226  -0.58048  -0.57878  -0.57723
 Alpha  occ. eigenvalues --   -0.56916  -0.55892  -0.55444  -0.54453  -0.54086
 Alpha  occ. eigenvalues --   -0.53384  -0.52776  -0.52138  -0.51835  -0.51633
 Alpha  occ. eigenvalues --   -0.50828  -0.50659  -0.50034  -0.48688  -0.48293
 Alpha  occ. eigenvalues --   -0.47701  -0.47289  -0.46117  -0.44615  -0.43708
 Alpha  occ. eigenvalues --   -0.43116  -0.42841  -0.41847  -0.40940  -0.40204
 Alpha  occ. eigenvalues --   -0.39833  -0.39351  -0.38817  -0.38297  -0.37734
 Alpha  occ. eigenvalues --   -0.35865  -0.34444  -0.33362  -0.32430  -0.31238
 Alpha  occ. eigenvalues --   -0.30676  -0.27664
 Alpha virt. eigenvalues --   -0.02112  -0.00108   0.00943   0.01947   0.02040
 Alpha virt. eigenvalues --    0.02182   0.02851   0.03644   0.04104   0.04316
 Alpha virt. eigenvalues --    0.04502   0.05029   0.05441   0.05548   0.05804

 Mulliken charges:
               1
     1  C   -2.342437
     2  C    0.853877
     3  Cl   0.250715
     4  C   -0.106922
     5  H    0.288151
     6  C    0.483095
     7  C   -0.928994
     8  S    1.710888
     9  C   -0.127506
    10  H    0.306882
    11  S    1.654695
    12  O   -0.788981
    13  O   -0.633742
    14  N   -0.859135
    15  H    0.402912
    16  N   -0.391377
    17  C   -0.788227
    18  N   -0.537225
    19  O   -0.607746
    20  O   -0.502439
    21  H    0.475690
    22  C   -0.524245
    23  C   -0.284036
    24  S    0.268402
    25  C   -0.827733
    26  C    0.962251
    27  H    0.313293
    28  H    0.285303
    29  H    0.298236
    30  H    0.271128
    31  H    0.327438
    32  H    0.329210
    33  H    0.337671
    34  H    0.343870
    35  F   -0.294741
    36  F   -0.311272
    37  F   -0.306950
 Sum of Mulliken charges =  -1.00000

 Dipole moment (field-independent basis, Debye):
    X=             30.9503    Y=             -8.5049    Z=             -6.9977  Tot=             32.8516
 Quadrupole moment (field-independent basis, Debye-Ang):
   XX=           -336.8203   YY=           -186.3888   ZZ=           -198.2161
   XY=             15.6447   XZ=             11.4415   YZ=             -7.1980

  Exact polarizability:     395.701      17.092     345.680     -27.210      10.567     275.735
 Approx polarizability:     315.121       8.772     304.409     -18.360      10.450     252.348

                      1                      2                      3
                      A                      A                      A
 Frequencies --     17.2958                31.5549                36.4235
 Red. masses --     13.0497                13.2242                13.5899
 Frc consts  --      0.0023                 0.0078                 0.0106
 IR Inten    --      4.5417                 2.1003                 3.3587

                      4                      5                      6
                      A                      A                      A
 Frequencies --     44.7738                63.4904                79.0092
 Red. masses --     12.5297                 7.5191                 5.4676
 Frc consts  --      0.0148                 0.0179                 0.0201
 IR Inten    --      2.3799                 0.3863                 5.0228

                      7                      8                      9
                      A                      A                      A
 Frequencies --     87.3536                90.9908               106.6781
 Red. masses --      9.3201                11.3273                 7.7048
 Frc consts  --      0.0419                 0.0553                 0.0517
 IR Inten    --      4.6535                 2.8007                 6.1446

                     10                     11                     12
                      A                      A                      A
 Frequencies --    128.2641               157.5373               183.0873
 Red. masses --      9.8172                 5.2157                13.0173
 Frc consts  --      0.0952                 0.0763                 0.2571
 IR Inten    --      0.2830                 5.9258                 0.4995

                     13                     14                     15
                      A                      A                      A
 Frequencies --    186.2956               197.3680               202.7700
 Red. masses --     11.5188                 7.0925                14.1929
 Frc consts  --      0.2355                 0.1628                 0.3438
 IR Inten    --      1.2069                 2.5547                 3.6196

                     16                     17                     18
                      A                      A                      A
 Frequencies --    231.4143               241.3946               252.8168
 Red. masses --      6.8667                 6.8562                 4.0669
 Frc consts  --      0.2167                 0.2354                 0.1532
 IR Inten    --      3.0582                 3.5337                 8.4116

                     19                     20                     21
                      A                      A                      A
 Frequencies --    258.7996               293.7738               297.2997
 Red. masses --      5.9051                 4.7020                 1.8951
 Frc consts  --      0.2330                 0.2391                 0.0987
 IR Inten    --      9.1414                20.3211                 1.1919

                     22                     23                     24
                      A                      A                      A
 Frequencies --    310.0991               337.2390               349.6844
 Red. masses --      5.6532                 4.7796                 2.3901
 Frc consts  --      0.3203                 0.3203                 0.1722
 IR Inten    --     57.6390                 7.0310                16.8056

                     25                     26                     27
                      A                      A                      A
 Frequencies --    362.8741               365.0964               398.3743
 Red. masses --      6.1241                 5.7295                 2.6959
 Frc consts  --      0.4751                 0.4500                 0.2521
 IR Inten    --     34.3586                 4.4325                62.4420

                     28                     29                     30
                      A                      A                      A
 Frequencies --    400.6677               412.0604               428.2222
 Red. masses --      2.7279                 6.2921                 3.4690
 Frc consts  --      0.2580                 0.6295                 0.3748
 IR Inten    --      4.8708                 4.0331                58.0786

                     31                     32                     33
                      A                      A                      A
 Frequencies --    448.1260               475.0206               486.6166
 Red. masses --      1.7627                 2.6660                 3.2160
 Frc consts  --      0.2086                 0.3544                 0.4487
 IR Inten    --    183.2940                34.0762               131.8391

                     34                     35                     36
                      A                      A                      A
 Frequencies --    501.9968               514.7279               523.9940
 Red. masses --      2.3676                 8.3729                 8.0714
 Frc consts  --      0.3515                 1.3070                 1.3057
 IR Inten    --    260.4016               124.4993                 0.7110

                     37                     38                     39
                      A                      A                      A
 Frequencies --    531.8002               531.9349               538.0511
 Red. masses --     10.9833                 6.5750                 7.0913
 Frc consts  --      1.8301                 1.0961                 1.2095
 IR Inten    --      4.1367               116.6228                 1.6210

                     40                     41                     42
                      A                      A                      A
 Frequencies --    555.5032               581.1964               604.8184
 Red. masses --      8.9086                 5.1973                 7.4078
 Frc consts  --      1.6197                 1.0344                 1.5966
 IR Inten    --     87.4229               119.2291                56.9344

                     43                     44                     45
                      A                      A                      A
 Frequencies --    641.8753               664.7156               682.2355
 Red. masses --      9.2336                 9.6230                 6.7944
 Frc consts  --      2.2414                 2.5052                 1.8633
 IR Inten    --     44.0443                 6.9440                28.1285

                     46                     47                     48
                      A                      A                      A
 Frequencies --    703.2472               717.3361               724.2302
 Red. masses --      7.1548                 4.7386                 4.1872
 Frc consts  --      2.0848                 1.4366                 1.2940
 IR Inten    --     45.1035                19.6321                44.4070

                     49                     50                     51
                      A                      A                      A
 Frequencies --    773.6997               802.1208               830.2940
 Red. masses --      4.8420                 6.6855                 5.6001
 Frc consts  --      1.7077                 2.5343                 2.2746
 IR Inten    --     16.5188                67.6424               135.5599

                     52                     53                     54
                      A                      A                      A
 Frequencies --    863.4725               874.3169               881.5244
 Red. masses --      2.1827                 5.0456                 1.5250
 Frc consts  --      0.9588                 2.2725                 0.6982
 IR Inten    --     28.5014                21.9456                48.8441

                     55                     56                     57
                      A                      A                      A
 Frequencies --    902.2155               936.1497               947.1557
 Red. masses --      2.2332                 1.4005                 8.5961
 Frc consts  --      1.0710                 0.7232                 4.5435
 IR Inten    --      4.0797                24.9710                98.8846

                     58                     59                     60
                      A                      A                      A
 Frequencies --    982.0669               988.8795              1071.6796
 Red. masses --      2.5660                 8.0338                 3.2875
 Frc consts  --      1.4581                 4.6287                 2.2245
 IR Inten    --     66.3850               675.6337               609.3197

                     61                     62                     63
                      A                      A                      A
 Frequencies --   1090.2904              1101.3967              1124.4297
 Red. masses --      6.1368                 2.6119                 3.0611
 Frc consts  --      4.2981                 1.8668                 2.2803
 IR Inten    --    212.1352                10.6578               324.2890

                     64                     65                     66
                      A                      A                      A
 Frequencies --   1126.1123              1133.4111              1141.8666
 Red. masses --      2.8745                 2.8091                 3.3664
 Frc consts  --      2.1477                 2.1262                 2.5861
 IR Inten    --    252.8611               288.8327               107.9040

                     67                     68                     69
                      A                      A                      A
 Frequencies --   1155.5683              1163.4086              1167.1166
 Red. masses --      1.4015                 3.2188                 5.5681
 Frc consts  --      1.1027                 2.5669                 4.4688
 IR Inten    --     43.3825               132.2718               333.5450

                     70                     71                     72
                      A                      A                      A
 Frequencies --   1187.7385              1196.4962              1234.0221
 Red. masses --      3.6309                 3.3924                 1.7669
 Frc consts  --      3.0179                 2.8614                 1.5853
 IR Inten    --    189.8796               550.7198                62.8293

                     73                     74                     75
                      A                      A                      A
 Frequencies --   1252.2799              1258.2385              1277.1672
 Red. masses --      2.2501                 2.6091                 1.4494
 Frc consts  --      2.0790                 2.4337                 1.3929
 IR Inten    --    238.9128               346.4204                45.1787

                     76                     77                     78
                      A                      A                      A
 Frequencies --   1287.4589              1305.2621              1309.4754
 Red. masses --      2.1291                 2.6435                 1.6408
 Frc consts  --      2.0793                 2.6535                 1.6577
 IR Inten    --    213.0657                79.4327               122.9514

                     79                     80                     81
                      A                      A                      A
 Frequencies --   1348.5964              1358.4679              1386.8535
 Red. masses --      1.5153                 3.2875                 2.0277
 Frc consts  --      1.6237                 3.5745                 2.2978
 IR Inten    --      4.1877                64.5589               174.1245

                     82                     83                     84
                      A                      A                      A
 Frequencies --   1401.0880              1408.7788              1446.8023
 Red. masses --      1.6596                 1.6998                 1.5293
 Frc consts  --      1.9195                 1.9876                 1.8861
 IR Inten    --     89.6787                62.0696                13.9874

                     85                     86                     87
                      A                      A                      A
 Frequencies --   1469.4430              1476.5093              1479.1786
 Red. masses --      1.1333                 1.1745                 1.1347
 Frc consts  --      1.4418                 1.5086                 1.4627
 IR Inten    --     21.8052                37.7359                11.4214

                     88                     89                     90
                      A                      A                      A
 Frequencies --   1505.7262              1510.5911              1525.8915
 Red. masses --      1.9005                 1.1454                 1.0458
 Frc consts  --      2.5387                 1.5399                 1.4347
 IR Inten    --     11.4117                21.9413                30.5682

                     91                     92                     93
                      A                      A                      A
 Frequencies --   1551.7615              1636.6525              1671.3224
 Red. masses --      3.0962                 5.8602                 7.2061
 Frc consts  --      4.3927                 9.2486                11.8596
 IR Inten    --    556.7058               139.2240               628.8750

                     94                     95                     96
                      A                      A                      A
 Frequencies --   3038.0133              3095.4051              3130.5367
 Red. masses --      1.0821                 1.0407                 1.0671
 Frc consts  --      5.8845                 5.8749                 6.1613
 IR Inten    --     56.8297                36.1790                 1.2603

                     97                     98                     99
                      A                      A                      A
 Frequencies --   3134.9561              3191.6010              3192.9127
 Red. masses --      1.0604                 1.0984                 1.1069
 Frc consts  --      6.1400                 6.5920                 6.6488
 IR Inten    --      5.1961                 7.4322                 6.8345

                    100                    101                    102
                      A                      A                      A
 Frequencies --   3218.0259              3224.5018              3239.6316
 Red. masses --      1.1043                 1.1002                 1.0934
 Frc consts  --      6.7380                 6.7396                 6.7610
 IR Inten    --      1.8583                 1.7014                 7.8946

                    103                    104                    105
                      A                      A                      A
 Frequencies --   3242.7091              3522.9365              3558.5016
 Red. masses --      1.0917                 1.0734                 1.0777
 Frc consts  --      6.7638                 7.8494                 8.0408
 IR Inten    --     15.8380                46.6197               258.6899

 - Thermochemistry -
 -------------------
 Temperature   298.150 Kelvin.  Pressure   1.00000 Atm.
 Atom     1 has atomic number  6 and mass  12.00000

 Molecular mass:   437.96306 amu.
 Principal axes and moments of inertia in atomic units:
                           1         2         3
     Eigenvalues --  5917.66857********************
           X            0.99996   0.00422  -0.00846
           Y           -0.00432   0.99991  -0.01261
           Z            0.00841   0.01265   0.99988
 This molecule is an asymmetric top.
 Rotational symmetry number  1.
 Warning -- assumption of classical behavior for rotation
           may cause significant error
 Rotational temperatures (Kelvin)      0.01464     0.00385     0.00344
 Rotational constants (GHZ):           0.30498     0.08028     0.07170
 Zero-point vibrational energy     659817.3 (Joules/Mol)
                                  157.70013 (Kcal/Mol)
 Warning -- explicit consideration of  42 degrees of freedom as
           vibrations may cause significant error
 Vibrational temperatures:     24.88    45.40    52.41    64.42    91.35
          (Kelvin)            113.68   125.68   130.92   153.49   184.54
                              226.66   263.42   268.04   283.97   291.74
                              332.95   347.31   363.75   372.35   422.67
                              427.75   446.16   485.21   503.12   522.09
                              525.29   573.17   576.47   592.86   616.12
                              644.75   683.45   700.13   722.26   740.58
                              753.91   765.14   765.34   774.14   799.25
                              836.21   870.20   923.52   956.38   981.58
                             1011.82  1032.09  1042.01  1113.18  1154.07
                             1194.61  1242.34  1257.95  1268.32  1298.09
                             1346.91  1362.75  1412.98  1422.78  1541.91
                             1568.68  1584.66  1617.80  1620.22  1630.73
                             1642.89  1662.61  1673.89  1679.22  1708.89
                             1721.49  1775.48  1801.75  1810.32  1837.56
                             1852.37  1877.98  1884.04  1940.33  1954.53
                             1995.37  2015.85  2026.92  2081.63  2114.20
                             2124.37  2128.21  2166.40  2173.40  2195.42
                             2232.64  2354.78  2404.66  4371.02  4453.60
                             4504.14  4510.50  4592.00  4593.89  4630.02
                             4639.34  4661.11  4665.54  5068.72  5119.89

 Zero-point correction=                           0.251311 (Hartree/Particle)
 Thermal correction to Energy=                    0.275187
 Thermal correction to Enthalpy=                  0.276131
 Thermal correction to Gibbs Free Energy=         0.196034
 Sum of electronic and zero-point Energies=          -2845.097002
 Sum of electronic and thermal Energies=             -2845.073126
 Sum of electronic and thermal Enthalpies=           -2845.072182
 Sum of electronic and thermal Free Energies=        -2845.152279

                     E (Thermal)             CV                S
                      KCal/Mol        Cal/Mol-Kelvin    Cal/Mol-Kelvin
 Total                  172.682             89.661            168.579
 Electronic               0.000              0.000              0.000
 Translational            0.889              2.981             44.121
 Rotational               0.889              2.981             36.458
 Vibrational            170.905             83.699             88.001
 Vibration     1          0.593              1.986              6.923
 Vibration     2          0.594              1.983              5.729
 Vibration     3          0.594              1.982              5.445
 Vibration     4          0.595              1.979              5.036
 Vibration     5          0.597              1.972              4.346
 Vibration     6          0.600              1.963              3.915
 Vibration     7          0.601              1.958              3.718
 Vibration     8          0.602              1.956              3.639
 Vibration     9          0.606              1.944              3.328
 Vibration    10          0.611              1.925              2.972
 Vibration    11          0.621              1.894              2.579
 Vibration    12          0.631              1.863              2.297
 Vibration    13          0.632              1.859              2.264
 Vibration    14          0.637              1.844              2.157
 Vibration    15          0.639              1.836              2.108
 Vibration    16          0.653              1.793              1.868
 Vibration    17          0.658              1.777              1.793
 Vibration    18          0.664              1.758              1.711
 Vibration    19          0.668              1.748              1.670
 Vibration    20          0.689              1.685              1.452
 Vibration    21          0.691              1.679              1.432
 Vibration    22          0.699              1.654              1.362
 Vibration    23          0.718              1.601              1.225
 Vibration    24          0.727              1.576              1.168
 Vibration    25          0.737              1.549              1.110
 Vibration    26          0.738              1.544              1.100
 Vibration    27          0.765              1.474              0.969
 Vibration    28          0.766              1.469              0.960
 Vibration    29          0.776              1.444              0.919
 Vibration    30          0.790              1.409              0.864
 Vibration    31          0.807              1.365              0.801
 Vibration    32          0.832              1.305              0.724
 Vibration    33          0.843              1.280              0.692
 Vibration    34          0.857              1.246              0.653
 Vibration    35          0.870              1.217              0.622
 Vibration    36          0.879              1.197              0.601
 Vibration    37          0.887              1.180              0.583
 Vibration    38          0.887              1.179              0.583
 Vibration    39          0.893              1.166              0.569
 Vibration    40          0.911              1.128              0.533
 Vibration    41          0.938              1.072              0.483
 Vibration    42          0.963              1.022              0.441

                           ! Non-Optimized Parameters !
 Normal termination of Gaussian 16 at Fri Jul  1 19:35:25 2022.
