 Gaussian 16, Revision C.01,
 Gaussian 16:  ES64L-G16RevC.01  3-Jul-2019

 -----------------------------------------------------
 #m062X/gen 6D OPT Freq=noraman SCRF=(SMD,Solvent=h2o)
 -----------------------------------------------------

 ---------------------
 A.36.smd.a2b3c2d2.smd
 ---------------------
 Symbolic Z-matrix:
 Charge = -1 Multiplicity = 1

 SCF Done:  E(RM062X) =  -1808.00124120     A.U. after   16 cycles
 SCF Done:  E(RM062X) =  -1808.00878005     A.U. after   16 cycles
 SCF Done:  E(RM062X) =  -1808.01071536     A.U. after   17 cycles
 SCF Done:  E(RM062X) =  -1808.01206924     A.U. after   18 cycles
 SCF Done:  E(RM062X) =  -1808.01264290     A.U. after   18 cycles
 SCF Done:  E(RM062X) =  -1808.01314699     A.U. after   14 cycles
 SCF Done:  E(RM062X) =  -1808.01326638     A.U. after   15 cycles
 SCF Done:  E(RM062X) =  -1808.01336475     A.U. after   14 cycles
 SCF Done:  E(RM062X) =  -1808.01346618     A.U. after   14 cycles
 SCF Done:  E(RM062X) =  -1808.01355534     A.U. after   15 cycles
 SCF Done:  E(RM062X) =  -1808.01649333     A.U. after   16 cycles
 SCF Done:  E(RM062X) =  -1808.01741406     A.U. after   15 cycles
 SCF Done:  E(RM062X) =  -1808.01775702     A.U. after   16 cycles
 SCF Done:  E(RM062X) =  -1808.01784973     A.U. after   13 cycles
 SCF Done:  E(RM062X) =  -1808.01788490     A.U. after   14 cycles
 SCF Done:  E(RM062X) =  -1808.01790511     A.U. after   14 cycles
 SCF Done:  E(RM062X) =  -1808.01791037     A.U. after   12 cycles
 SCF Done:  E(RM062X) =  -1808.01791369     A.U. after   13 cycles
 SCF Done:  E(RM062X) =  -1808.01791356     A.U. after   10 cycles
 Optimization completed.
    -- Stationary point found.
 Normal termination of Gaussian 16 at Fri Jul  1 23:05:03 2022.

 ------------------------------------------------------------------
 #N Geom=AllCheck Guess=TCheck SCRF=Check GenChk RM062X/ChkBas Freq
 ------------------------------------------------------------------

 Structure from the checkpoint file:  "/jobfs/49976025.gadi-pbs/Gau-1877081.chk"
 ---------------------
 A.36.smd.a2b3c2d2.smd
 ---------------------
 Charge = -1 Multiplicity = 1

                         Standard orientation:
 ---------------------------------------------------------------------
 Center     Atomic      Atomic             Coordinates (Angstroms)
 Number     Number       Type             X           Y           Z
 ---------------------------------------------------------------------
      1          6           0       -2.029639   -0.057519    0.115569
      2          6           0       -2.095591   -1.258387   -0.592303
      3         17           0       -3.584637   -1.817998   -1.317549
      4          6           0       -0.965479   -2.054838   -0.750626
      5          1           0       -1.033441   -2.984485   -1.306428
      6          6           0        0.244053   -1.654878   -0.193246
      7          6           0        0.326702   -0.462340    0.525528
      8          6           0       -0.809811    0.332808    0.666976
      9         16           0       -3.469393    1.029723    0.342748
     10          8           0       -4.410263    0.183499    1.133859
     11          8           0       -2.921158    2.182694    1.100672
     12          7           0       -4.004422    1.529712   -1.033640
     13          1           0       -4.528930    0.769653   -1.471212
     14          1           0       -0.760160    1.266181    1.214810
     15          6           0        1.663328    0.010775    1.083395
     16          7           0        2.517470   -1.102967    1.485853
     17          6           0        2.520634    0.660776    0.003580
     18          6           0        3.639583   -1.249015    0.729796
     19          6           0        3.674257   -0.086291   -0.196381
     20          8           0        4.454953   -2.167435    0.813185
     21          6           0        2.281248    1.820680   -0.717743
     22          6           0        3.244087    2.205898   -1.655584
     23          6           0        4.403885    1.447502   -1.861691
     24          6           0        4.635665    0.282586   -1.128772
     25          8           0        1.393477    0.880442    2.157645
     26          1           0        1.120454   -2.283076   -0.326636
     27          1           0        2.165927   -1.856882    2.069032
     28          1           0        1.379276    2.407392   -0.563771
     29          1           0        3.089223    3.109037   -2.238354
     30          1           0        5.129883    1.773209   -2.600184
     31          1           0        5.532371   -0.312290   -1.276722
     32          1           0        2.229595    1.294299    2.434455
 ---------------------------------------------------------------------

 SCF Done:  E(RM062X) =  -1808.01791356     A.U. after    1 cycles

 The electronic state is 1-A.
 Alpha  occ. eigenvalues -- -102.68254 -90.14010 -19.66937 -19.64019 -19.62263
 Alpha  occ. eigenvalues --  -19.62175 -14.79782 -14.72117 -10.67805 -10.67211
 Alpha  occ. eigenvalues --  -10.63229 -10.59146 -10.58112 -10.57654 -10.57357
 Alpha  occ. eigenvalues --  -10.57223 -10.57149 -10.57118 -10.57021 -10.56770
 Alpha  occ. eigenvalues --  -10.56693 -10.56401  -9.82899  -8.44835  -7.55298
 Alpha  occ. eigenvalues --   -7.54647  -7.54622  -6.37076  -6.36989  -6.36918
 Alpha  occ. eigenvalues --   -1.21178  -1.19103  -1.17379  -1.09502  -1.06241
 Alpha  occ. eigenvalues --   -1.01105  -0.97544  -0.96387  -0.95358  -0.87885
 Alpha  occ. eigenvalues --   -0.87207  -0.86878  -0.85190  -0.78305  -0.74126
 Alpha  occ. eigenvalues --   -0.73808  -0.70234  -0.69314  -0.67329  -0.65575
 Alpha  occ. eigenvalues --   -0.63114  -0.60801  -0.58699  -0.57687  -0.57052
 Alpha  occ. eigenvalues --   -0.56153  -0.55234  -0.54819  -0.54443  -0.52076
 Alpha  occ. eigenvalues --   -0.51895  -0.51444  -0.51297  -0.50158  -0.49865
 Alpha  occ. eigenvalues --   -0.48329  -0.46712  -0.45007  -0.44831  -0.43441
 Alpha  occ. eigenvalues --   -0.42927  -0.42752  -0.42214  -0.41184  -0.39652
 Alpha  occ. eigenvalues --   -0.39009  -0.38628  -0.37607  -0.36325  -0.35546
 Alpha  occ. eigenvalues --   -0.34733  -0.33251  -0.32971  -0.32361  -0.31968
 Alpha  occ. eigenvalues --   -0.30453  -0.29234
 Alpha virt. eigenvalues --   -0.02468  -0.00704  -0.00223   0.01322   0.01514
 Alpha virt. eigenvalues --    0.02146   0.02765   0.03329   0.03806   0.04327
 Alpha virt. eigenvalues --    0.04645   0.04769   0.05450   0.05803   0.06180

 Mulliken charges:
               1
     1  C   -2.547920
     2  C    1.429483
     3  Cl   0.225726
     4  C   -0.458601
     5  H    0.277810
     6  C   -0.039578
     7  C   -0.054132
     8  C   -0.647990
     9  S    1.559731
    10  O   -0.644753
    11  O   -0.775030
    12  N   -0.876100
    13  H    0.402128
    14  H    0.287890
    15  C    1.253299
    16  N   -0.679914
    17  C   -0.837749
    18  C    0.752835
    19  C    0.364564
    20  O   -0.641708
    21  C   -0.040556
    22  C   -0.261671
    23  C   -0.000847
    24  C   -0.829609
    25  O   -0.663120
    26  H    0.284356
    27  H    0.526919
    28  H    0.278009
    29  H    0.258415
    30  H    0.256296
    31  H    0.271849
    32  H    0.569967
 Sum of Mulliken charges =  -1.00000

 Dipole moment (field-independent basis, Debye):
    X=             18.8862    Y=             -4.5529    Z=             -4.5376  Tot=             19.9501
 Quadrupole moment (field-independent basis, Debye-Ang):
   XX=           -237.0355   YY=           -159.5023   ZZ=           -147.7516
   XY=             49.1865   XZ=              5.1431   YZ=             -1.6079

  Exact polarizability:     373.434     -31.629     317.910      -7.685      -7.708     262.754
 Approx polarizability:     308.428     -22.872     276.615      -3.868      -2.758     234.572

                      1                      2                      3
                      A                      A                      A
 Frequencies --     16.3819                37.0135                56.5000
 Red. masses --      7.9715                 7.5927                 7.3386
 Frc consts  --      0.0013                 0.0061                 0.0138
 IR Inten    --     11.4021                 0.4885                 7.3660

                      4                      5                      6
                      A                      A                      A
 Frequencies --     69.5516               103.6706               126.4329
 Red. masses --      9.3345                 5.5880                 9.8836
 Frc consts  --      0.0266                 0.0354                 0.0931
 IR Inten    --      0.9640                 0.6797                 6.8745

                      7                      8                      9
                      A                      A                      A
 Frequencies --    129.5637               142.5357               187.7315
 Red. masses --      6.5071                 6.2084                13.8982
 Frc consts  --      0.0644                 0.0743                 0.2886
 IR Inten    --      0.0418                 1.2044                 0.8462

                     10                     11                     12
                      A                      A                      A
 Frequencies --    194.4119               244.8303               257.2393
 Red. masses --      6.0109                 5.4185                 6.1298
 Frc consts  --      0.1339                 0.1914                 0.2390
 IR Inten    --      1.0469                 4.7172                 5.7729

                     13                     14                     15
                      A                      A                      A
 Frequencies --    270.3290               281.5465               312.1821
 Red. masses --      7.1731                 8.0294                 6.4780
 Frc consts  --      0.3088                 0.3750                 0.3720
 IR Inten    --     18.4349                 5.7729                 3.4083

                     16                     17                     18
                      A                      A                      A
 Frequencies --    323.0384               348.6778               367.6652
 Red. masses --      3.6334                 5.7880                 3.5087
 Frc consts  --      0.2234                 0.4146                 0.2794
 IR Inten    --     19.8436                26.8757                69.6300

                     19                     20                     21
                      A                      A                      A
 Frequencies --    382.0866               400.1485               423.3409
 Red. masses --      1.2389                 3.6597                 2.7268
 Frc consts  --      0.1066                 0.3452                 0.2879
 IR Inten    --    233.0842                18.9911                30.5232

                     22                     23                     24
                      A                      A                      A
 Frequencies --    451.8599               463.8894               479.1481
 Red. masses --      3.6314                 3.6871                 1.4673
 Frc consts  --      0.4368                 0.4675                 0.1985
 IR Inten    --     20.6420                 5.6262               257.5932

                     25                     26                     27
                      A                      A                      A
 Frequencies --    489.4919               502.6142               517.0748
 Red. masses --      2.4427                 4.6314                 5.2297
 Frc consts  --      0.3448                 0.6893                 0.8238
 IR Inten    --    174.5449                75.1236                23.6052

                     28                     29                     30
                      A                      A                      A
 Frequencies --    541.0153               550.1080               579.1517
 Red. masses --      7.4299                 8.2191                 5.7399
 Frc consts  --      1.2813                 1.4655                 1.1343
 IR Inten    --     15.6914                48.7025                50.5631

                     31                     32                     33
                      A                      A                      A
 Frequencies --    581.7155               611.5389               630.2958
 Red. masses --     12.1273                 6.0269                 4.7503
 Frc consts  --      2.4179                 1.3280                 1.1119
 IR Inten    --    245.9972                10.2475                 1.1938

                     34                     35                     36
                      A                      A                      A
 Frequencies --    677.8864               692.6235               711.2793
 Red. masses --      5.4131                 7.3991                 3.8267
 Frc consts  --      1.4656                 2.0913                 1.1407
 IR Inten    --      1.5534                20.9078                76.1116

                     37                     38                     39
                      A                      A                      A
 Frequencies --    736.1701               744.9985               775.7299
 Red. masses --      4.0632                 4.1735                 3.5348
 Frc consts  --      1.2974                 1.3648                 1.2532
 IR Inten    --     16.1022                76.0090                30.7144

                     40                     41                     42
                      A                      A                      A
 Frequencies --    794.9079               812.9496               823.9248
 Red. masses --      2.3405                 3.8214                 3.6700
 Frc consts  --      0.8713                 1.4880                 1.4679
 IR Inten    --     22.2437                 5.0644                23.8148

                     43                     44                     45
                      A                      A                      A
 Frequencies --    858.2408               910.4667               938.8108
 Red. masses --      1.5309                 1.4268                 1.6845
 Frc consts  --      0.6644                 0.6968                 0.8747
 IR Inten    --     55.3398                 2.2972                38.0637

                     46                     47                     48
                      A                      A                      A
 Frequencies --    950.7055               978.5182               994.6263
 Red. masses --      5.0076                 4.3232                 1.4331
 Frc consts  --      2.6667                 2.4389                 0.8353
 IR Inten    --    169.2514               220.9627                 2.6005

                     49                     50                     51
                      A                      A                      A
 Frequencies --    998.1581              1033.0819              1048.5475
 Red. masses --      1.3882                 1.3281                 2.1329
 Frc consts  --      0.8149                 0.8351                 1.3816
 IR Inten    --      5.5726                 0.0396                22.0672

                     52                     53                     54
                      A                      A                      A
 Frequencies --   1050.0596              1074.4879              1085.0026
 Red. masses --      6.0125                 4.1034                 3.1879
 Frc consts  --      3.9060                 2.7912                 2.2112
 IR Inten    --    252.7244               574.9504                48.9593

                     55                     56                     57
                      A                      A                      A
 Frequencies --   1112.2433              1124.0024              1148.6084
 Red. masses --      2.3765                 2.6442                 1.8884
 Frc consts  --      1.7322                 1.9682                 1.4679
 IR Inten    --    101.5340               314.7685                21.7613

                     58                     59                     60
                      A                      A                      A
 Frequencies --   1166.1503              1177.9669              1182.1853
 Red. masses --      1.2354                 1.7916                 1.7145
 Frc consts  --      0.9899                 1.4647                 1.4117
 IR Inten    --     16.6141                76.6784                39.3949

                     61                     62                     63
                      A                      A                      A
 Frequencies --   1195.7988              1202.4020              1223.2498
 Red. masses --      2.5382                 2.3383                 2.1370
 Frc consts  --      2.1384                 1.9918                 1.8840
 IR Inten    --    347.2220                61.9736               137.9514

                     64                     65                     66
                      A                      A                      A
 Frequencies --   1284.0508              1295.9570              1308.3916
 Red. masses --      1.5198                 2.1031                 2.2410
 Frc consts  --      1.4764                 2.0811                 2.2603
 IR Inten    --     29.0039                79.0905               144.7845

                     67                     68                     69
                      A                      A                      A
 Frequencies --   1327.4625              1355.1270              1376.0825
 Red. masses --      5.1150                 5.0174                 2.7853
 Frc consts  --      5.3106                 5.4286                 3.1075
 IR Inten    --     41.9733                86.3838                60.7161

                     70                     71                     72
                      A                      A                      A
 Frequencies --   1387.2018              1427.6097              1446.0910
 Red. masses --      3.2687                 2.9338                 3.0125
 Frc consts  --      3.7060                 3.5229                 3.7116
 IR Inten    --     74.9393               299.6512               208.7300

                     73                     74                     75
                      A                      A                      A
 Frequencies --   1516.3895              1518.0473              1521.9182
 Red. masses --      2.8501                 2.8485                 2.9934
 Frc consts  --      3.8613                 3.8676                 4.0851
 IR Inten    --     89.5501                22.6466                48.9655

                     76                     77                     78
                      A                      A                      A
 Frequencies --   1651.6187              1672.1411              1683.9244
 Red. masses --      7.8260                 6.6266                 7.7778
 Frc consts  --     12.5780                10.9165                12.9943
 IR Inten    --     33.9629                10.4845                11.9608

                     79                     80                     81
                      A                      A                      A
 Frequencies --   1693.8254              1734.9586              3229.3908
 Red. masses --      7.5154                10.7121                 1.0894
 Frc consts  --     12.7039                18.9979                 6.6936
 IR Inten    --     83.8631              1525.4570                 0.3568

                     82                     83                     84
                      A                      A                      A
 Frequencies --   3236.0014              3238.2118              3243.6316
 Red. masses --      1.0903                 1.0897                 1.0945
 Frc consts  --      6.7267                 6.7324                 6.7844
 IR Inten    --      1.0347                 0.7649                 6.5947

                     85                     86                     87
                      A                      A                      A
 Frequencies --   3250.9905              3251.6295              3273.3105
 Red. masses --      1.0962                 1.0981                 1.0903
 Frc consts  --      6.8260                 6.8409                 6.8828
 IR Inten    --      0.1527                11.7178                13.5217

                     88                     89                     90
                      A                      A                      A
 Frequencies --   3524.8400              3607.1740              3756.5517
 Red. masses --      1.0734                 1.0801                 1.0669
 Frc consts  --      7.8577                 8.2804                 8.8707
 IR Inten    --     43.0638               200.6678               146.4247

 - Thermochemistry -
 -------------------
 Temperature   298.150 Kelvin.  Pressure   1.00000 Atm.
 Atom     1 has atomic number  6 and mass  12.00000

 Molecular mass:   337.00498 amu.
 Principal axes and moments of inertia in atomic units:
                           1         2         3
     Eigenvalues --  3787.62587********************
           X            0.99998   0.00315  -0.00574
           Y           -0.00338   0.99916  -0.04072
           Z            0.00561   0.04074   0.99915
 This molecule is an asymmetric top.
 Rotational symmetry number  1.
 Warning -- assumption of classical behavior for rotation
           may cause significant error
 Rotational temperatures (Kelvin)      0.02287     0.00659     0.00616
 Rotational constants (GHZ):           0.47648     0.13735     0.12836
 Zero-point vibrational energy     592804.0 (Joules/Mol)
                                  141.68356 (Kcal/Mol)
 Warning -- explicit consideration of  32 degrees of freedom as
           vibrations may cause significant error
 Vibrational temperatures:     23.57    53.25    81.29   100.07   149.16
          (Kelvin)            181.91   186.41   205.08   270.10   279.72
                              352.26   370.11   388.94   405.08   449.16
                              464.78   501.67   528.99   549.74   575.72
                              609.09   650.13   667.43   689.39   704.27
                              723.15   743.96   778.40   791.48   833.27
                              836.96   879.87   906.86   975.33   996.53
                             1023.37  1059.18  1071.89  1116.10  1143.70
                             1169.65  1185.44  1234.82  1309.96  1350.74
                             1367.85  1407.87  1431.05  1436.13  1486.37
                             1508.63  1510.80  1545.95  1561.08  1600.27
                             1617.19  1652.59  1677.83  1694.83  1700.90
                             1720.49  1729.99  1759.98  1847.46  1864.59
                             1882.48  1909.92  1949.73  1979.88  1995.87
                             2054.01  2080.60  2181.75  2184.13  2189.70
                             2376.31  2405.84  2422.79  2437.04  2496.22
                             4646.37  4655.88  4659.06  4666.86  4677.45
                             4678.37  4709.56  5071.46  5189.92  5404.84

 Zero-point correction=                           0.225787 (Hartree/Particle)
 Thermal correction to Energy=                    0.244247
 Thermal correction to Enthalpy=                  0.245191
 Thermal correction to Gibbs Free Energy=         0.177912
 Sum of electronic and zero-point Energies=          -1807.792126
 Sum of electronic and thermal Energies=             -1807.773667
 Sum of electronic and thermal Enthalpies=           -1807.772723
 Sum of electronic and thermal Free Energies=        -1807.840001

                     E (Thermal)             CV                S
                      KCal/Mol        Cal/Mol-Kelvin    Cal/Mol-Kelvin
 Total                  153.267             72.038            141.600
 Electronic               0.000              0.000              0.000
 Translational            0.889              2.981             43.339
 Rotational               0.889              2.981             34.902
 Vibrational            151.490             66.076             63.358
 Vibration     1          0.593              1.986              7.031
 Vibration     2          0.594              1.982              5.413
 Vibration     3          0.596              1.975              4.576
 Vibration     4          0.598              1.969              4.166
 Vibration     5          0.605              1.946              3.384
 Vibration     6          0.611              1.927              3.000
 Vibration     7          0.612              1.924              2.953
 Vibration     8          0.616              1.911              2.770
 Vibration     9          0.632              1.857              2.250
 Vibration    10          0.635              1.848              2.185
 Vibration    11          0.660              1.771              1.768
 Vibration    12          0.667              1.751              1.680
 Vibration    13          0.674              1.728              1.594
 Vibration    14          0.681              1.708              1.524
 Vibration    15          0.701              1.650              1.351
 Vibration    16          0.708              1.629              1.295
 Vibration    17          0.726              1.578              1.172
 Vibration    18          0.740              1.539              1.090
 Vibration    19          0.752              1.508              1.031
 Vibration    20          0.766              1.470              0.962
 Vibration    21          0.786              1.419              0.881
 Vibration    22          0.811              1.357              0.790
 Vibration    23          0.821              1.330              0.755
 Vibration    24          0.836              1.296              0.712
 Vibration    25          0.845              1.273              0.685
 Vibration    26          0.858              1.244              0.652
 Vibration    27          0.872              1.212              0.617
 Vibration    28          0.896              1.159              0.563
 Vibration    29          0.905              1.139              0.544
 Vibration    30          0.936              1.076              0.487
 Vibration    31          0.938              1.071              0.482
 Vibration    32          0.971              1.007              0.430

 Optimization completed.
    -- Stationary point found.
 Normal termination of Gaussian 16 at Fri Jul  1 23:25:02 2022.
