 Gaussian 16, Revision C.01,
 Gaussian 16:  ES64L-G16RevC.01  3-Jul-2019

 -----------------------------------------------------
 #m062X/gen 6D OPT Freq=noraman SCRF=(SMD,Solvent=h2o)
 -----------------------------------------------------

 ---------------------
 A.37.smd.a2b3c2e2.smd
 ---------------------
 Symbolic Z-matrix:
 Charge = -1 Multiplicity = 1

 SCF Done:  E(RM062X) =  -1866.64877747     A.U. after   16 cycles
 SCF Done:  E(RM062X) =  -1866.67535922     A.U. after   17 cycles
 SCF Done:  E(RM062X) =  -1866.68222414     A.U. after   17 cycles
 SCF Done:  E(RM062X) =  -1866.68581772     A.U. after   17 cycles
 SCF Done:  E(RM062X) =  -1866.69081808     A.U. after   17 cycles
 SCF Done:  E(RM062X) =  -1866.69436979     A.U. after   17 cycles
 SCF Done:  E(RM062X) =  -1866.69705337     A.U. after   17 cycles
 SCF Done:  E(RM062X) =  -1866.69762232     A.U. after   16 cycles
 SCF Done:  E(RM062X) =  -1866.69838036     A.U. after   15 cycles
 SCF Done:  E(RM062X) =  -1866.69841007     A.U. after   16 cycles
 SCF Done:  E(RM062X) =  -1866.69874657     A.U. after   12 cycles
 SCF Done:  E(RM062X) =  -1866.69874682     A.U. after   11 cycles
 SCF Done:  E(RM062X) =  -1866.69874639     A.U. after   11 cycles
 SCF Done:  E(RM062X) =  -1866.69874607     A.U. after   10 cycles
 SCF Done:  E(RM062X) =  -1866.69874679     A.U. after   11 cycles
 SCF Done:  E(RM062X) =  -1866.69874588     A.U. after   11 cycles
 SCF Done:  E(RM062X) =  -1866.69874582     A.U. after    9 cycles
 SCF Done:  E(RM062X) =  -1866.69874676     A.U. after   11 cycles
 SCF Done:  E(RM062X) =  -1866.69874588     A.U. after   11 cycles
 Optimization completed.
    -- Stationary point found.
 Normal termination of Gaussian 16 at Sat Jul  2 14:10:40 2022.

 ------------------------------------------------------------------
 #N Geom=AllCheck Guess=TCheck SCRF=Check GenChk RM062X/ChkBas Freq
 ------------------------------------------------------------------

 Structure from the checkpoint file:  "/jobfs/50071362.gadi-pbs/Gau-3970744.chk"
 ---------------------
 A.37.smd.a2b3c2e2.smd
 ---------------------
 Charge = -1 Multiplicity = 1

                         Standard orientation:
 ---------------------------------------------------------------------
 Center     Atomic      Atomic             Coordinates (Angstroms)
 Number     Number       Type             X           Y           Z
 ---------------------------------------------------------------------
      1          6           0       -2.785217    0.033732    0.003506
      2          6           0       -3.356298   -0.929575   -0.831203
      3         17           0       -5.084315   -1.037255   -1.051771
      4          6           0       -2.564822   -1.835913   -1.532560
      5          1           0       -3.031751   -2.575429   -2.174893
      6          6           0       -1.182711   -1.781772   -1.404940
      7          6           0       -0.595755   -0.834165   -0.565449
      8          6           0       -1.398232    0.071700    0.130267
      9         16           0       -3.772146    1.267589    0.906141
     10          8           0       -4.624441    0.432399    1.800191
     11          8           0       -2.748234    2.064936    1.626183
     12          7           0       -4.537211    2.189251   -0.089880
     13          1           0       -5.350728    1.680201   -0.441278
     14          1           0       -0.961254    0.838293    0.762231
     15          1           0       -0.559356   -2.481811   -1.952405
     16          6           0        0.898054   -0.809152   -0.473628
     17          7           0        1.408853   -0.411640    0.716575
     18          8           0        1.609553   -1.126691   -1.430425
     19          7           0        2.768257   -0.272245    0.945974
     20          6           0        3.549996   -1.537932    1.055187
     21          6           0        4.994321   -1.044944    0.858467
     22          6           0        4.813528    0.187603    0.003605
     23          6           0        3.477687    0.593946    0.082800
     24          6           0        3.288110   -2.250386    2.365122
     25          6           0        3.005814    1.716754   -0.584669
     26          6           0        3.922758    2.449045   -1.348159
     27          6           0        5.261714    2.063712   -1.433072
     28          6           0        5.713515    0.924529   -0.751218
     29          1           0        0.803652   -0.237099    1.510938
     30          1           0        3.269601   -2.184611    0.212381
     31          1           0        5.628763   -1.807871    0.400951
     32          1           0        5.432434   -0.774913    1.829285
     33          1           0        2.230938   -2.518713    2.464084
     34          1           0        3.571927   -1.616528    3.211943
     35          1           0        3.875227   -3.173407    2.408263
     36          1           0        1.960336    2.008814   -0.526790
     37          1           0        3.580140    3.327799   -1.887302
     38          1           0        5.954458    2.643812   -2.035317
     39          1           0        6.754224    0.617577   -0.820839
 ---------------------------------------------------------------------

 SCF Done:  E(RM062X) =  -1866.69874588     A.U. after    1 cycles

 The electronic state is 1-A.
 Alpha  occ. eigenvalues -- -102.68488 -90.14173 -19.63831 -19.62400 -19.62301
 Alpha  occ. eigenvalues --  -14.82973 -14.81377 -14.72236 -10.67946 -10.63795
 Alpha  occ. eigenvalues --  -10.59470 -10.58753 -10.58380 -10.58331 -10.58137
 Alpha  occ. eigenvalues --  -10.57671 -10.57593 -10.55498 -10.55289 -10.55279
 Alpha  occ. eigenvalues --  -10.55101 -10.54826 -10.54633 -10.53124  -9.83136
 Alpha  occ. eigenvalues --   -8.44995  -7.55537  -7.54885  -7.54853  -6.37236
 Alpha  occ. eigenvalues --   -6.37150  -6.37077  -1.21367  -1.19224  -1.12491
 Alpha  occ. eigenvalues --   -1.09687  -1.01621  -1.00231  -0.96554  -0.95779
 Alpha  occ. eigenvalues --   -0.93933  -0.88434  -0.87602  -0.85646  -0.84704
 Alpha  occ. eigenvalues --   -0.82120  -0.76971  -0.74096  -0.73853  -0.70534
 Alpha  occ. eigenvalues --   -0.68487  -0.67532  -0.67348  -0.65590  -0.63203
 Alpha  occ. eigenvalues --   -0.60617  -0.58073  -0.57118  -0.56731  -0.55838
 Alpha  occ. eigenvalues --   -0.55309  -0.54693  -0.53194  -0.52356  -0.51914
 Alpha  occ. eigenvalues --   -0.51475  -0.51355  -0.49712  -0.49345  -0.48230
 Alpha  occ. eigenvalues --   -0.47487  -0.46443  -0.45801  -0.44569  -0.44104
 Alpha  occ. eigenvalues --   -0.43520  -0.42931  -0.42704  -0.41737  -0.41182
 Alpha  occ. eigenvalues --   -0.39976  -0.39853  -0.39181  -0.38909  -0.37785
 Alpha  occ. eigenvalues --   -0.37266  -0.36394  -0.35568  -0.34250  -0.33528
 Alpha  occ. eigenvalues --   -0.33129  -0.31586  -0.30337  -0.29527  -0.25948
 Alpha virt. eigenvalues --   -0.02553  -0.00355   0.01374   0.01649   0.02410
 Alpha virt. eigenvalues --    0.02961   0.03081   0.03427   0.03589   0.04293
 Alpha virt. eigenvalues --    0.04458   0.04845   0.05079   0.05343   0.05651

 Mulliken charges:
               1
     1  C   -2.190705
     2  C    1.334485
     3  Cl   0.232476
     4  C   -0.281466
     5  H    0.279882
     6  C   -0.372436
     7  C    0.169779
     8  C   -0.320095
     9  S    1.445890
    10  O   -0.656607
    11  O   -0.785363
    12  N   -0.894743
    13  H    0.402484
    14  H    0.292352
    15  H    0.280704
    16  C    0.245206
    17  N   -0.370805
    18  O   -0.503123
    19  N   -0.109364
    20  C    0.145471
    21  C   -0.806513
    22  C    1.375546
    23  C   -1.007095
    24  C   -0.754741
    25  C    0.092482
    26  C   -0.567315
    27  C   -0.088247
    28  C   -0.615015
    29  H    0.527189
    30  H    0.258568
    31  H    0.265367
    32  H    0.259891
    33  H    0.237937
    34  H    0.240926
    35  H    0.243225
    36  H    0.265840
    37  H    0.241723
    38  H    0.238392
    39  H    0.247819
 Sum of Mulliken charges =  -1.00000

 Dipole moment (field-independent basis, Debye):
    X=             18.0410    Y=            -10.6572    Z=             -3.2235  Tot=             21.2001
 Quadrupole moment (field-independent basis, Debye-Ang):
   XX=           -230.6124   YY=           -173.1652   ZZ=           -173.0168
   XY=             28.8679   XZ=             36.6519   YZ=            -12.0414

  Exact polarizability:     433.812      -9.100     339.299      -8.948      -0.318     307.292
 Approx polarizability:     358.479      -6.483     288.016      -6.637       1.297     269.930

                      1                      2                      3
                      A                      A                      A
 Frequencies --     18.5185                26.6503                46.3233
 Red. masses --      5.9933                 7.2297                 4.6334
 Frc consts  --      0.0012                 0.0030                 0.0059
 IR Inten    --      3.3508                 4.9009                 2.7663

                      4                      5                      6
                      A                      A                      A
 Frequencies --     64.9454                78.2002                84.5160
 Red. masses --      7.5570                 4.7489                 6.3476
 Frc consts  --      0.0188                 0.0171                 0.0267
 IR Inten    --      0.9161                 4.6006                 1.2675

                      7                      8                      9
                      A                      A                      A
 Frequencies --    101.5698               119.2026               125.7298
 Red. masses --      5.2029                 6.4578                 7.1034
 Frc consts  --      0.0316                 0.0541                 0.0662
 IR Inten    --      6.5537                14.0323                11.5719

                     10                     11                     12
                      A                      A                      A
 Frequencies --    167.8660               175.8015               205.0428
 Red. masses --      6.5349                 5.2251                 6.6089
 Frc consts  --      0.1085                 0.0951                 0.1637
 IR Inten    --      2.9899                 0.3316                 4.3818

                     13                     14                     15
                      A                      A                      A
 Frequencies --    226.7059               242.3338               260.7116
 Red. masses --      4.1415                 1.3166                 5.2252
 Frc consts  --      0.1254                 0.0456                 0.2093
 IR Inten    --      7.6325                 0.4776                16.9123

                     16                     17                     18
                      A                      A                      A
 Frequencies --    265.6638               271.6818               299.2428
 Red. masses --      3.1276                 3.1909                 7.0601
 Frc consts  --      0.1301                 0.1388                 0.3725
 IR Inten    --      5.7978                 0.5012                18.2194

                     19                     20                     21
                      A                      A                      A
 Frequencies --    318.3112               333.8109               360.4942
 Red. masses --      6.2452                 6.1298                 4.1582
 Frc consts  --      0.3728                 0.4024                 0.3184
 IR Inten    --      0.5994                16.0390                31.0946

                     22                     23                     24
                      A                      A                      A
 Frequencies --    376.7528               416.4588               425.8436
 Red. masses --      3.2142                 4.6014                 2.9822
 Frc consts  --      0.2688                 0.4702                 0.3186
 IR Inten    --     87.7638                 8.5024                15.5420

                     25                     26                     27
                      A                      A                      A
 Frequencies --    449.9459               456.0628               459.2171
 Red. masses --      3.2050                 3.3515                 2.0471
 Frc consts  --      0.3823                 0.4107                 0.2543
 IR Inten    --     22.2057                64.7636                60.0424

                     28                     29                     30
                      A                      A                      A
 Frequencies --    473.5817               500.5767               502.9401
 Red. masses --      2.6466                 2.0835                 4.4150
 Frc consts  --      0.3497                 0.3076                 0.6580
 IR Inten    --    109.0421               196.4999                93.8995

                     31                     32                     33
                      A                      A                      A
 Frequencies --    512.8299               538.2457               558.0845
 Red. masses --      3.5798                 3.3531                 4.6618
 Frc consts  --      0.5547                 0.5723                 0.8555
 IR Inten    --     11.5126                 6.0161                11.0966

                     34                     35                     36
                      A                      A                      A
 Frequencies --    582.4719               593.6955               606.8065
 Red. masses --     11.9632                 6.5474                 5.4524
 Frc consts  --      2.3914                 1.3597                 1.1829
 IR Inten    --    244.3530                21.4865                11.3987

                     37                     38                     39
                      A                      A                      A
 Frequencies --    617.2360               637.7955               687.9450
 Red. masses --      4.5797                 5.0733                 7.3339
 Frc consts  --      1.0280                 1.2159                 2.0450
 IR Inten    --      5.2329                 1.8720                21.4555

                     40                     41                     42
                      A                      A                      A
 Frequencies --    729.9482               738.3514               752.7278
 Red. masses --      4.8943                 2.8212                 3.6481
 Frc consts  --      1.5365                 0.9062                 1.2179
 IR Inten    --      3.9829                31.4055                34.4221

                     43                     44                     45
                      A                      A                      A
 Frequencies --    775.8845               778.9143               815.6126
 Red. masses --      2.0021                 2.4170                 6.0674
 Frc consts  --      0.7101                 0.8640                 2.3780
 IR Inten    --     78.9202                92.3554                14.0599

                     46                     47                     48
                      A                      A                      A
 Frequencies --    837.9063               866.5454               886.2466
 Red. masses --      4.1559                 1.5083                 1.3416
 Frc consts  --      1.7191                 0.6673                 0.6209
 IR Inten    --      4.3886                34.6441                 5.1043

                     49                     50                     51
                      A                      A                      A
 Frequencies --    907.1736               925.5542               938.3749
 Red. masses --      2.6628                 1.4697                 4.3799
 Frc consts  --      1.2911                 0.7418                 2.2723
 IR Inten    --      5.4409                12.5320                35.4391

                     52                     53                     54
                      A                      A                      A
 Frequencies --    947.6707               969.1415               971.2328
 Red. masses --      1.6217                 6.5584                 1.3796
 Frc consts  --      0.8581                 3.6293                 0.7667
 IR Inten    --     22.6934               292.7095                 7.0065

                     55                     56                     57
                      A                      A                      A
 Frequencies --    984.3268              1004.3368              1012.2149
 Red. masses --      2.6335                 1.3624                 1.2871
 Frc consts  --      1.5034                 0.8097                 0.7770
 IR Inten    --     33.9651                 0.3441                 0.0362

                     58                     59                     60
                      A                      A                      A
 Frequencies --   1053.7151              1054.9943              1078.5697
 Red. masses --      6.2847                 2.0393                 3.5786
 Frc consts  --      4.1113                 1.3373                 2.4528
 IR Inten    --    273.8432                28.9643               564.6231

                     61                     62                     63
                      A                      A                      A
 Frequencies --   1085.7238              1106.0984              1125.8296
 Red. masses --      1.8435                 2.4883                 2.2904
 Frc consts  --      1.2804                 1.7936                 1.7104
 IR Inten    --      3.9874                 9.1232                 6.6378

                     64                     65                     66
                      A                      A                      A
 Frequencies --   1126.9870              1149.0472              1155.1315
 Red. masses --      2.6995                 2.1744                 2.3055
 Frc consts  --      2.0201                 1.6915                 1.8125
 IR Inten    --    319.8227                56.6706                 8.9448

                     67                     68                     69
                      A                      A                      A
 Frequencies --   1158.3134              1166.5063              1172.0622
 Red. masses --      1.8726                 1.1119                 1.3803
 Frc consts  --      1.4803                 0.8914                 1.1172
 IR Inten    --     16.7363                 1.7810                39.7363

                     70                     71                     72
                      A                      A                      A
 Frequencies --   1188.3884              1199.2743              1221.1288
 Red. masses --      1.9483                 3.0525                 1.8150
 Frc consts  --      1.6211                 2.5867                 1.5946
 IR Inten    --     26.2370               426.7941                 0.7492

                     73                     74                     75
                      A                      A                      A
 Frequencies --   1244.0856              1282.2109              1291.8256
 Red. masses --      2.0792                 1.8824                 1.7140
 Frc consts  --      1.8960                 1.8234                 1.6853
 IR Inten    --     40.9714                42.4318               141.2089

                     76                     77                     78
                      A                      A                      A
 Frequencies --   1308.5349              1325.2835              1330.0557
 Red. masses --      2.1157                 1.5493                 8.6952
 Frc consts  --      2.1344                 1.6033                 9.0630
 IR Inten    --     68.2477                12.8970                26.9453

                     79                     80                     81
                      A                      A                      A
 Frequencies --   1359.8511              1360.7194              1395.2071
 Red. masses --      1.4889                 3.2059                 1.4372
 Frc consts  --      1.6222                 3.4973                 1.6483
 IR Inten    --     96.6461                51.7583                18.6510

                     82                     83                     84
                      A                      A                      A
 Frequencies --   1411.1310              1430.2229              1430.3328
 Red. masses --      2.7571                 1.6413                 3.0129
 Frc consts  --      3.2347                 1.9781                 3.6316
 IR Inten    --      6.3651                23.8466                33.4525

                     85                     86                     87
                      A                      A                      A
 Frequencies --   1482.0303              1496.7328              1499.3168
 Red. masses --      1.1185                 1.0600                 1.0506
 Frc consts  --      1.4474                 1.3990                 1.3915
 IR Inten    --      3.0521                11.1512                10.2158

                     88                     89                     90
                      A                      A                      A
 Frequencies --   1508.1805              1510.4872              1529.5787
 Red. masses --      2.6203                 2.4670                 3.0591
 Frc consts  --      3.5117                 3.3163                 4.2169
 IR Inten    --     36.9277               189.9354               128.9061

                     91                     92                     93
                      A                      A                      A
 Frequencies --   1553.6432              1644.2862              1670.4294
 Red. masses --      2.3232                 7.8593                 6.5698
 Frc consts  --      3.3040                12.5196                10.8009
 IR Inten    --    345.1046                37.6199               103.7637

                     94                     95                     96
                      A                      A                      A
 Frequencies --   1676.0903              1686.4852              1708.6645
 Red. masses --      7.0364                 7.8434                 8.8698
 Frc consts  --     11.6466                13.1438                15.2572
 IR Inten    --     17.9311                66.1111               653.5943

                     97                     98                     99
                      A                      A                      A
 Frequencies --   3064.8223              3075.1650              3078.7349
 Red. masses --      1.0735                 1.0777                 1.0380
 Frc consts  --      5.9412                 6.0045                 5.7971
 IR Inten    --     26.5376                45.5883                39.2793

                    100                    101                    102
                      A                      A                      A
 Frequencies --   3153.5483              3155.8582              3158.7252
 Red. masses --      1.1006                 1.0987                 1.1027
 Frc consts  --      6.4490                 6.4468                 6.4826
 IR Inten    --     32.2971                20.0059                46.5708

                    103                    104                    105
                      A                      A                      A
 Frequencies --   3217.8893              3222.2901              3231.9958
 Red. masses --      1.0885                 1.0901                 1.0934
 Frc consts  --      6.6406                 6.6685                 6.7294
 IR Inten    --      8.6331                 4.2904                16.6065

                    106                    107                    108
                      A                      A                      A
 Frequencies --   3243.6920              3246.6810              3251.7030
 Red. masses --      1.0975                 1.0900                 1.0911
 Frc consts  --      6.8037                 6.7696                 6.7972
 IR Inten    --     19.4638                 0.5574                10.5539

                    109                    110                    111
                      A                      A                      A
 Frequencies --   3257.2626              3526.2608              3622.0479
 Red. masses --      1.0967                 1.0734                 1.0807
 Frc consts  --      6.8555                 7.8643                 8.3538
 IR Inten    --      0.2811                40.9867               174.0805

 - Thermochemistry -
 -------------------
 Temperature   298.150 Kelvin.  Pressure   1.00000 Atm.
 Atom     1 has atomic number  6 and mass  12.00000

 Molecular mass:   364.05227 amu.
 Principal axes and moments of inertia in atomic units:
                           1         2         3
     Eigenvalues --  4178.98816********************
           X            0.99998  -0.00326   0.00468
           Y            0.00376   0.99376  -0.11146
           Z           -0.00429   0.11147   0.99376
 This molecule is an asymmetric top.
 Rotational symmetry number  1.
 Warning -- assumption of classical behavior for rotation
           may cause significant error
 Rotational temperatures (Kelvin)      0.02073     0.00451     0.00432
 Rotational constants (GHZ):           0.43186     0.09398     0.09008
 Zero-point vibrational energy     775872.8 (Joules/Mol)
                                  185.43806 (Kcal/Mol)
 Warning -- explicit consideration of  37 degrees of freedom as
           vibrations may cause significant error
 Vibrational temperatures:     26.64    38.34    66.65    93.44   112.51
          (Kelvin)            121.60   146.14   171.51   180.90   241.52
                              252.94   295.01   326.18   348.66   375.11
                              382.23   390.89   430.54   457.98   480.28
                              518.67   542.06   599.19   612.69   647.37
                              656.17   660.71   681.38   720.22   723.62
                              737.85   774.42   802.96   838.05   854.20
                              873.06   888.06   917.65   989.80  1050.23
                             1062.32  1083.01  1116.32  1120.68  1173.48
                             1205.56  1246.77  1275.11  1305.22  1331.67
                             1350.11  1363.49  1394.38  1397.39  1416.23
                             1445.02  1456.35  1516.06  1517.90  1551.82
                             1562.11  1591.43  1619.82  1621.48  1653.22
                             1661.98  1666.55  1678.34  1686.34  1709.83
                             1725.49  1756.93  1789.96  1844.82  1858.65
                             1882.69  1906.79  1913.65  1956.52  1957.77
                             2007.39  2030.30  2057.77  2057.93  2132.31
                             2153.46  2157.18  2169.94  2173.25  2200.72
                             2235.35  2365.76  2403.38  2411.52  2426.48
                             2458.39  4409.60  4424.48  4429.61  4537.25
                             4540.58  4544.70  4629.83  4636.16  4650.12
                             4666.95  4671.25  4678.48  4686.47  5073.50
                             5211.32

 Zero-point correction=                           0.295514 (Hartree/Particle)
 Thermal correction to Energy=                    0.316637
 Thermal correction to Enthalpy=                  0.317581
 Thermal correction to Gibbs Free Energy=         0.244022
 Sum of electronic and zero-point Energies=          -1866.403232
 Sum of electronic and thermal Energies=             -1866.382109
 Sum of electronic and thermal Enthalpies=           -1866.381165
 Sum of electronic and thermal Free Energies=        -1866.454723

                     E (Thermal)             CV                S
                      KCal/Mol        Cal/Mol-Kelvin    Cal/Mol-Kelvin
 Total                  198.693             81.883            154.817
 Electronic               0.000              0.000              0.000
 Translational            0.889              2.981             43.570
 Rotational               0.889              2.981             35.729
 Vibrational            196.915             75.921             75.519
 Vibration     1          0.593              1.986              6.787
 Vibration     2          0.593              1.984              6.064
 Vibration     3          0.595              1.979              4.968
 Vibration     4          0.597              1.971              4.301
 Vibration     5          0.599              1.964              3.936
 Vibration     6          0.601              1.960              3.783
 Vibration     7          0.604              1.948              3.424
 Vibration     8          0.609              1.933              3.113
 Vibration     9          0.611              1.927              3.010
 Vibration    10          0.625              1.882              2.459
 Vibration    11          0.628              1.872              2.373
 Vibration    12          0.640              1.833              2.087
 Vibration    13          0.650              1.800              1.905
 Vibration    14          0.659              1.775              1.786
 Vibration    15          0.669              1.745              1.657
 Vibration    16          0.671              1.736              1.624
 Vibration    17          0.675              1.725              1.585
 Vibration    18          0.692              1.675              1.421
 Vibration    19          0.705              1.639              1.319
 Vibration    20          0.715              1.608              1.242
 Vibration    21          0.735              1.554              1.120
 Vibration    22          0.747              1.520              1.052
 Vibration    23          0.780              1.434              0.904
 Vibration    24          0.788              1.414              0.872
 Vibration    25          0.809              1.361              0.796
 Vibration    26          0.814              1.347              0.778
 Vibration    27          0.817              1.341              0.768
 Vibration    28          0.830              1.309              0.728
 Vibration    29          0.856              1.249              0.657
 Vibration    30          0.858              1.243              0.651
 Vibration    31          0.868              1.222              0.627
 Vibration    32          0.893              1.165              0.569
 Vibration    33          0.914              1.122              0.528
 Vibration    34          0.939              1.069              0.481
 Vibration    35          0.951              1.045              0.461
 Vibration    36          0.966              1.017              0.438
 Vibration    37          0.977              0.995              0.421

 Optimization completed.
    -- Stationary point found.
 Normal termination of Gaussian 16 at Sat Jul  2 14:41:18 2022.
