 Gaussian 16, Revision C.01,
 Gaussian 16:  ES64L-G16RevC.01  3-Jul-2019

 -----------------------------------------------------
 #m062X/gen 6D OPT Freq=noraman SCRF=(SMD,Solvent=h2o)
 -----------------------------------------------------

 -----------------
 A.38.smd.a3b3.smd
 -----------------
 Symbolic Z-matrix:
 Charge = -1 Multiplicity = 1

 SCF Done:  E(RM062X) =  -2358.48247024     A.U. after   16 cycles
 SCF Done:  E(RM062X) =  -2358.48788126     A.U. after   14 cycles
 SCF Done:  E(RM062X) =  -2358.48959647     A.U. after   13 cycles
 SCF Done:  E(RM062X) =  -2358.49096866     A.U. after   14 cycles
 SCF Done:  E(RM062X) =  -2358.49143956     A.U. after   14 cycles
 SCF Done:  E(RM062X) =  -2358.49164802     A.U. after   14 cycles
 SCF Done:  E(RM062X) =  -2358.49172625     A.U. after   12 cycles
 SCF Done:  E(RM062X) =  -2358.49173004     A.U. after   12 cycles
 SCF Done:  E(RM062X) =  -2358.49173099     A.U. after   10 cycles
 SCF Done:  E(RM062X) =  -2358.49173116     A.U. after    9 cycles
 Optimization completed.
    -- Stationary point found.
 Normal termination of Gaussian 16 at Sat Jul  2 14:41:27 2022.

 ------------------------------------------------------------------
 #N Geom=AllCheck Guess=TCheck SCRF=Check GenChk RM062X/ChkBas Freq
 ------------------------------------------------------------------

 Structure from the checkpoint file:  "/jobfs/50077364.gadi-pbs/Gau-794717.chk"
 -----------------
 A.38.smd.a3b3.smd
 -----------------
 Charge = -1 Multiplicity = 1

                         Standard orientation:
 ---------------------------------------------------------------------
 Center     Atomic      Atomic             Coordinates (Angstroms)
 Number     Number       Type             X           Y           Z
 ---------------------------------------------------------------------
      1          6           0        0.879824   -0.465952   -0.011686
      2          6           0        1.164964    0.905580    0.007980
      3          6           0        0.114952    1.831578   -0.029665
      4          6           0       -1.208866    1.407094   -0.081082
      5          6           0       -1.461417    0.044102   -0.093721
      6          6           0       -0.438710   -0.897486   -0.056177
      7         16           0        2.178464   -1.756441    0.000115
      8          8           0        2.959138   -1.452028   -1.231823
      9          8           0        2.906445   -1.520027    1.271133
     10          7           0        1.497986   -3.150694    0.030702
     11          1           0        1.190224   -3.389157   -0.915254
     12         17           0        2.793076    1.481039    0.078462
     13         17           0        0.425463    3.537672   -0.019331
     14         16           0       -3.152830   -0.517633   -0.109631
     15          1           0       -2.014838    2.133469   -0.116359
     16          1           0       -0.650143   -1.963133   -0.064069
     17          8           0       -3.976769    0.575426   -0.619856
     18          8           0       -3.177666   -1.820917   -0.768849
     19          7           0       -3.632237   -0.776636    1.444587
     20          1           0       -3.617673    0.081412    1.999765
     21          1           0       -3.086785   -1.513313    1.897192
 ---------------------------------------------------------------------

 SCF Done:  E(RM062X) =  -2358.49173116     A.U. after    2 cycles

 The electronic state is 1-A.
 Alpha  occ. eigenvalues -- -102.69214-102.69177 -90.18714 -90.14459 -19.66589
 Alpha  occ. eigenvalues --  -19.66562 -19.62565 -19.62528 -14.80543 -14.72540
 Alpha  occ. eigenvalues --  -10.65541 -10.64927 -10.61414 -10.60605 -10.60042
 Alpha  occ. eigenvalues --  -10.59489  -9.83857  -9.83804  -8.49685  -8.45275
 Alpha  occ. eigenvalues --   -7.56273  -7.56225  -7.55596  -7.55563  -7.55549
 Alpha  occ. eigenvalues --   -7.55493  -6.41881  -6.41873  -6.41760  -6.37505
 Alpha  occ. eigenvalues --   -6.37432  -6.37368  -1.26622  -1.21564  -1.15173
 Alpha  occ. eigenvalues --   -1.09894  -1.04585  -1.03459  -0.97847  -0.97655
 Alpha  occ. eigenvalues --   -0.96500  -0.88351  -0.85914  -0.77297  -0.75299
 Alpha  occ. eigenvalues --   -0.70077  -0.67900  -0.64049  -0.62036  -0.60701
 Alpha  occ. eigenvalues --   -0.59351  -0.58148  -0.57457  -0.55502  -0.54437
 Alpha  occ. eigenvalues --   -0.53141  -0.52919  -0.51351  -0.48792  -0.47275
 Alpha  occ. eigenvalues --   -0.44353  -0.44060  -0.43480  -0.42996  -0.42568
 Alpha  occ. eigenvalues --   -0.41310  -0.40577  -0.40338  -0.39880  -0.39395
 Alpha  occ. eigenvalues --   -0.38341  -0.37788  -0.35772  -0.33522  -0.33017
 Alpha  occ. eigenvalues --   -0.31972  -0.31015
 Alpha virt. eigenvalues --   -0.03422  -0.01637   0.00639   0.01096   0.02730
 Alpha virt. eigenvalues --    0.03484   0.03965   0.04190   0.04821   0.05489
 Alpha virt. eigenvalues --    0.05763   0.06638   0.07332   0.07473   0.08218

 Mulliken charges:
               1
     1  C   -1.392228
     2  C    0.176946
     3  C    0.188549
     4  C   -0.847334
     5  C   -0.763724
     6  C    0.387339
     7  S    1.615754
     8  O   -0.648245
     9  O   -0.660282
    10  N   -1.017341
    11  H    0.427187
    12  Cl   0.294733
    13  Cl   0.261680
    14  S    1.605304
    15  H    0.314101
    16  H    0.306511
    17  O   -0.619656
    18  O   -0.634514
    19  N   -1.014408
    20  H    0.509247
    21  H    0.510381
 Sum of Mulliken charges =  -1.00000

 Dipole moment (field-independent basis, Debye):
    X=            -10.4140    Y=              9.7138    Z=              3.5928  Tot=             14.6873
 Quadrupole moment (field-independent basis, Debye-Ang):
   XX=           -190.2185   YY=           -150.0631   ZZ=           -126.3984
   XY=             17.9266   XZ=            -20.3590   YZ=              3.4797

  Exact polarizability:     267.718       7.555     265.164      -0.357      -1.062     156.999
 Approx polarizability:     227.027       9.741     234.041       1.155      -0.557     146.998

                      1                      2                      3
                      A                      A                      A
 Frequencies --     43.8956                46.7430                57.0916
 Red. masses --      7.6319                 9.5626                19.7367
 Frc consts  --      0.0087                 0.0123                 0.0379
 IR Inten    --     10.0560                 9.1137                 2.8490

                      4                      5                      6
                      A                      A                      A
 Frequencies --     85.0150               104.0954               147.3778
 Red. masses --      7.4538                11.3829                15.2391
 Frc consts  --      0.0317                 0.0727                 0.1950
 IR Inten    --     17.4060                12.0883                 0.9455

                      7                      8                      9
                      A                      A                      A
 Frequencies --    161.9994               214.0255               220.1473
 Red. masses --      7.2977                 9.0429                 9.0166
 Frc consts  --      0.1128                 0.2441                 0.2575
 IR Inten    --      3.1193                 6.7881                 5.1216

                     10                     11                     12
                      A                      A                      A
 Frequencies --    240.4111               248.4205               277.6504
 Red. masses --      6.6723                 5.7320                 9.3157
 Frc consts  --      0.2272                 0.2084                 0.4231
 IR Inten    --     26.4907                 1.6687                11.0414

                     13                     14                     15
                      A                      A                      A
 Frequencies --    288.2191               300.6576               339.0356
 Red. masses --      2.4585                 5.7338                 2.7001
 Frc consts  --      0.1203                 0.3054                 0.1829
 IR Inten    --     21.5790                20.9214                 5.1074

                     16                     17                     18
                      A                      A                      A
 Frequencies --    355.1499               415.6503               429.9598
 Red. masses --      5.3256                 2.4087                 3.2692
 Frc consts  --      0.3958                 0.2452                 0.3561
 IR Inten    --      4.4191               124.7328                26.9377

                     19                     20                     21
                      A                      A                      A
 Frequencies --    458.9918               476.0971               481.5639
 Red. masses --      8.1822                10.1211                 7.9258
 Frc consts  --      1.0156                 1.3517                 1.0829
 IR Inten    --      9.5929                37.8860                50.2492

                     22                     23                     24
                      A                      A                      A
 Frequencies --    494.0647               527.0931               562.8393
 Red. masses --      2.0707                 8.5662                 6.9601
 Frc consts  --      0.2978                 1.4022                 1.2991
 IR Inten    --    204.4869               148.5374                25.9019

                     25                     26                     27
                      A                      A                      A
 Frequencies --    565.0952               586.7379               602.9048
 Red. masses --      6.2124                11.4349                 5.3292
 Frc consts  --      1.1688                 2.3194                 1.1413
 IR Inten    --     12.5285               276.5609                41.6812

                     28                     29                     30
                      A                      A                      A
 Frequencies --    624.3931               723.6557               726.6998
 Red. masses --      7.9823                 2.6541                 3.9387
 Frc consts  --      1.8335                 0.8189                 1.2255
 IR Inten    --     15.0823               572.3847               168.3372

                     31                     32                     33
                      A                      A                      A
 Frequencies --    801.9078               849.4056               902.0951
 Red. masses --     11.1516                 6.3932                 2.3984
 Frc consts  --      4.2251                 2.7177                 1.1499
 IR Inten    --     34.9664               188.5541                86.1422

                     34                     35                     36
                      A                      A                      A
 Frequencies --    922.2432               941.4589               974.3650
 Red. masses --      1.6217                 1.3987                13.6888
 Frc consts  --      0.8127                 0.7304                 7.6570
 IR Inten    --      4.0644                 3.4681               320.6501

                     37                     38                     39
                      A                      A                      A
 Frequencies --   1060.3479              1076.2344              1129.1335
 Red. masses --      6.1422                 2.4162                 1.2635
 Frc consts  --      4.0688                 1.6489                 0.9491
 IR Inten    --    162.3173               540.7482                 8.0835

                     40                     41                     42
                      A                      A                      A
 Frequencies --   1130.3041              1137.1409              1168.4004
 Red. masses --      2.9978                 7.0013                 1.9871
 Frc consts  --      2.2565                 5.3340                 1.5983
 IR Inten    --    285.3321               269.6753               175.4939

                     43                     44                     45
                      A                      A                      A
 Frequencies --   1194.6361              1197.3841              1234.3783
 Red. masses --      5.9730                 5.2311                 1.4455
 Frc consts  --      5.0224                 4.4189                 1.2976
 IR Inten    --    344.9435               456.0047                 7.8149

                     46                     47                     48
                      A                      A                      A
 Frequencies --   1310.2050              1322.3743              1431.6306
 Red. masses --     12.3390                10.1367                 3.6906
 Frc consts  --     12.4798                10.4437                 4.4566
 IR Inten    --    225.6312               326.8932                74.6707

                     49                     50                     51
                      A                      A                      A
 Frequencies --   1457.5288              1592.8576              1639.1177
 Red. masses --      3.4672                 1.0986                 9.1399
 Frc consts  --      4.3397                 1.6423                14.4681
 IR Inten    --    121.9384               108.8065                 1.7648

                     52                     53                     54
                      A                      A                      A
 Frequencies --   1650.0695              3241.7861              3252.6445
 Red. masses --      6.7974                 1.0915                 1.0940
 Frc consts  --     10.9044                 6.7587                 6.8191
 IR Inten    --     22.7600                37.1737                24.1538

                     55                     56                     57
                      A                      A                      A
 Frequencies --   3484.8193              3508.2374              3585.8525
 Red. masses --      1.0486                 1.0740                 1.0994
 Frc consts  --      7.5027                 7.7882                 8.3288
 IR Inten    --    147.1988                56.4242               160.3649

 - Thermochemistry -
 -------------------
 Temperature   298.150 Kelvin.  Pressure   1.00000 Atm.
 Atom     1 has atomic number  6 and mass  12.00000

 Molecular mass:   302.90678 amu.
 Principal axes and moments of inertia in atomic units:
                           1         2         3
     Eigenvalues --  3965.000916636.414009857.38802
           X            0.99991  -0.01049  -0.00852
           Y            0.01049   0.99994   0.00024
           Z            0.00851  -0.00033   0.99996
 This molecule is an asymmetric top.
 Rotational symmetry number  1.
 Warning -- assumption of classical behavior for rotation
           may cause significant error
 Rotational temperatures (Kelvin)      0.02184     0.01305     0.00879
 Rotational constants (GHZ):           0.45517     0.27195     0.18309
 Zero-point vibrational energy     323005.1 (Joules/Mol)
                                   77.20008 (Kcal/Mol)
 Warning -- explicit consideration of  27 degrees of freedom as
           vibrations may cause significant error
 Vibrational temperatures:     63.16    67.25    82.14   122.32   149.77
          (Kelvin)            212.04   233.08   307.93   316.74   345.90
                              357.42   399.48   414.68   432.58   487.80
                              510.98   598.03   618.62   660.39   685.00
                              692.86   710.85   758.37   809.80   813.05
                              844.18   867.45   898.36  1041.18  1045.56
                             1153.77  1222.11  1297.91  1326.90  1354.55
                             1401.89  1525.60  1548.46  1624.57  1626.26
                             1636.09  1681.07  1718.81  1722.77  1776.00
                             1885.09  1902.60  2059.80  2097.06  2291.77
                             2358.32  2374.08  4664.21  4679.83  5013.88
                             5047.57  5159.24

 Zero-point correction=                           0.123026 (Hartree/Particle)
 Thermal correction to Energy=                    0.138571
 Thermal correction to Enthalpy=                  0.139515
 Thermal correction to Gibbs Free Energy=         0.078796
 Sum of electronic and zero-point Energies=          -2358.368705
 Sum of electronic and thermal Energies=             -2358.353160
 Sum of electronic and thermal Enthalpies=           -2358.352216
 Sum of electronic and thermal Free Energies=        -2358.412935

                     E (Thermal)             CV                S
                      KCal/Mol        Cal/Mol-Kelvin    Cal/Mol-Kelvin
 Total                   86.955             56.940            127.795
 Electronic               0.000              0.000              0.000
 Translational            0.889              2.981             43.021
 Rotational               0.889              2.981             33.916
 Vibrational             85.177             50.978             50.857
 Vibration     1          0.595              1.980              5.075
 Vibration     2          0.595              1.979              4.951
 Vibration     3          0.596              1.975              4.555
 Vibration     4          0.601              1.960              3.772
 Vibration     5          0.605              1.946              3.376
 Vibration     6          0.617              1.906              2.706
 Vibration     7          0.622              1.889              2.526
 Vibration     8          0.644              1.820              2.009
 Vibration     9          0.647              1.810              1.958
 Vibration    10          0.657              1.779              1.800
 Vibration    11          0.662              1.765              1.742
 Vibration    12          0.679              1.715              1.548
 Vibration    13          0.685              1.696              1.484
 Vibration    14          0.693              1.672              1.413
 Vibration    15          0.719              1.598              1.217
 Vibration    16          0.731              1.565              1.143
 Vibration    17          0.779              1.436              0.907
 Vibration    18          0.791              1.405              0.859
 Vibration    19          0.817              1.341              0.769
 Vibration    20          0.833              1.303              0.721
 Vibration    21          0.838              1.291              0.706
 Vibration    22          0.850              1.263              0.673
 Vibration    23          0.882              1.190              0.594
 Vibration    24          0.919              1.112              0.518
 Vibration    25          0.921              1.107              0.514
 Vibration    26          0.944              1.060              0.473
 Vibration    27          0.961              1.026              0.445

                           ! Non-Optimized Parameters !
 Normal termination of Gaussian 16 at Sat Jul  2 14:48:10 2022.
