 Gaussian 16, Revision C.01,
 Gaussian 16:  ES64L-G16RevC.01  3-Jul-2019

 -----------------------------------------------------
 #m062X/gen 6D OPT Freq=noraman SCRF=(SMD,Solvent=h2o)
 -----------------------------------------------------

 ---------------
 A.39.smd.a1.smd
 ---------------
 Symbolic Z-matrix:
 Charge = -1 Multiplicity = 1

 SCF Done:  E(RM062X) =  -1043.38772836     A.U. after   15 cycles
 SCF Done:  E(RM062X) =  -1043.38772848     A.U. after    8 cycles
 SCF Done:  E(RM062X) =  -1043.38772840     A.U. after    8 cycles
 SCF Done:  E(RM062X) =  -1043.38772844     A.U. after    8 cycles
 Optimization completed.
    -- Stationary point found.
 Normal termination of Gaussian 16 at Sat Jul  2 01:40:25 2022.

 ------------------------------------------------------------------
 #N Geom=AllCheck Guess=TCheck SCRF=Check GenChk RM062X/ChkBas Freq
 ------------------------------------------------------------------

 Structure from the checkpoint file:  "/jobfs/50000971.gadi-pbs/Gau-1691121.chk"
 ---------------
 A.39.smd.a1.smd
 ---------------
 Charge = -1 Multiplicity = 1

                         Standard orientation:
 ---------------------------------------------------------------------
 Center     Atomic      Atomic             Coordinates (Angstroms)
 Number     Number       Type             X           Y           Z
 ---------------------------------------------------------------------
      1         16           0        2.667051   -0.211406    0.209559
      2          8           0        3.217568   -0.364543    1.588468
      3          8           0        2.374512   -1.511189   -0.472003
      4          7           0        3.565536    0.773624   -0.604411
      5          1           0        3.295433    0.710301   -1.588506
      6          6           0        1.037166    0.525052    0.539220
      7          7           0        0.308355    0.807333   -0.689348
      8          6           0       -0.808141    1.763257   -0.453831
      9          6           0       -1.951908    0.867994   -0.062580
     10          6           0       -1.606373   -0.410033   -0.479273
     11          8           0       -0.351366   -0.437014   -1.058419
     12          6           0       -3.186749    1.090082    0.527735
     13          6           0       -4.056511    0.002554    0.683644
     14          6           0       -3.687439   -1.272627    0.248773
     15          6           0       -2.441397   -1.506169   -0.345857
     16          1           0        1.255523    1.468903    1.042536
     17          1           0        0.495583   -0.143945    1.219497
     18          1           0       -0.513542    2.491274    0.302657
     19          1           0       -3.475698    2.083896    0.857746
     20          1           0       -5.026410    0.152675    1.147703
     21          1           0       -4.373854   -2.103995    0.379592
     22          1           0       -2.139864   -2.493074   -0.681426
     23          1           0       -1.024827    2.291042   -1.387785
 ---------------------------------------------------------------------

 SCF Done:  E(RM062X) =  -1043.38772844     A.U. after    1 cycles

 The electronic state is 1-A.
 Alpha  occ. eigenvalues --  -90.12776 -19.70655 -19.61767 -19.61737 -14.83581
 Alpha  occ. eigenvalues --  -14.71644 -10.61262 -10.59202 -10.58673 -10.56302
 Alpha  occ. eigenvalues --  -10.56094 -10.55918 -10.55844 -10.55247  -8.43757
 Alpha  occ. eigenvalues --   -6.35997  -6.35891  -6.35803  -1.23601  -1.20199
 Alpha  occ. eigenvalues --   -1.08729  -0.99809  -0.96730  -0.95630  -0.87826
 Alpha  occ. eigenvalues --   -0.84379  -0.81482  -0.73381  -0.69611  -0.68910
 Alpha  occ. eigenvalues --   -0.66085  -0.60207  -0.58947  -0.57468  -0.56249
 Alpha  occ. eigenvalues --   -0.55581  -0.52677  -0.51849  -0.51196  -0.49962
 Alpha  occ. eigenvalues --   -0.49449  -0.48111  -0.46112  -0.45111  -0.42538
 Alpha  occ. eigenvalues --   -0.41831  -0.41561  -0.40166  -0.38938  -0.37049
 Alpha  occ. eigenvalues --   -0.35388  -0.33567  -0.32075  -0.31070  -0.29719
 Alpha  occ. eigenvalues --   -0.28076
 Alpha virt. eigenvalues --    0.01100   0.01864   0.02816   0.03244   0.03677
 Alpha virt. eigenvalues --    0.04301   0.04811   0.05301   0.05805   0.06216
 Alpha virt. eigenvalues --    0.06661   0.06996   0.07495   0.08620   0.08967

 Mulliken charges:
               1
     1  S    1.425192
     2  O   -0.802538
     3  O   -0.782995
     4  N   -1.032959
     5  H    0.402378
     6  C   -0.574041
     7  N   -0.363710
     8  C   -0.459717
     9  C    0.689458
    10  C   -0.054967
    11  O   -0.171849
    12  C   -1.149429
    13  C   -0.121426
    14  C   -0.360787
    15  C    0.187322
    16  H    0.296586
    17  H    0.299925
    18  H    0.277805
    19  H    0.257524
    20  H    0.244479
    21  H    0.248663
    22  H    0.266255
    23  H    0.278832
 Sum of Mulliken charges =  -1.00000

 Dipole moment (field-independent basis, Debye):
    X=            -19.6688    Y=              5.1440    Z=              0.0387  Tot=             20.3304
 Quadrupole moment (field-independent basis, Debye-Ang):
   XX=           -147.6849   YY=            -91.0928   ZZ=           -100.7303
   XY=              4.3228   XZ=            -11.0095   YZ=              1.3495

  Exact polarizability:     223.445      13.845     208.131     -22.246       7.126     156.148
 Approx polarizability:     180.020      10.333     181.942     -19.122       8.390     138.915

                      1                      2                      3
                      A                      A                      A
 Frequencies --     27.1630                42.0936                92.5779
 Red. masses --      6.8652                 6.7195                 5.3451
 Frc consts  --      0.0030                 0.0070                 0.0270
 IR Inten    --      0.7897                 4.5013                 6.0368

                      4                      5                      6
                      A                      A                      A
 Frequencies --    136.3934               179.4229               235.6624
 Red. masses --      4.5796                 4.6978                 6.7321
 Frc consts  --      0.0502                 0.0891                 0.2203
 IR Inten    --      7.8801                 4.0320                11.5021

                      7                      8                      9
                      A                      A                      A
 Frequencies --    284.4259               296.9664               323.7149
 Red. masses --      3.1195                 4.5059                 2.0163
 Frc consts  --      0.1487                 0.2341                 0.1245
 IR Inten    --     62.1985                11.5008                20.4294

                     10                     11                     12
                      A                      A                      A
 Frequencies --    385.4636               414.1846               427.2173
 Red. masses --      2.4018                 3.9604                 2.9128
 Frc consts  --      0.2103                 0.4003                 0.3132
 IR Inten    --     64.3850                49.0017                10.2615

                     13                     14                     15
                      A                      A                      A
 Frequencies --    469.9638               488.7765               496.5559
 Red. masses --      3.0024                 7.0726                 3.8466
 Frc consts  --      0.3907                 0.9955                 0.5588
 IR Inten    --    111.3946                36.6580                51.1263

                     16                     17                     18
                      A                      A                      A
 Frequencies --    533.9485               558.8656               568.6380
 Red. masses --      5.5421                 4.3117                 5.9537
 Frc consts  --      0.9309                 0.7934                 1.1343
 IR Inten    --     19.5626                18.7199                97.4815

                     19                     20                     21
                      A                      A                      A
 Frequencies --    618.2666               723.4884               729.7809
 Red. masses --      6.3117                 3.1175                 5.3836
 Frc consts  --      1.4215                 0.9614                 1.6893
 IR Inten    --     17.5108                24.8919                22.4889

                     22                     23                     24
                      A                      A                      A
 Frequencies --    773.9915               798.2503               850.0053
 Red. masses --      1.4178                 4.6392                 5.2284
 Frc consts  --      0.5004                 1.7417                 2.2257
 IR Inten    --    130.9965                12.1828                25.8753

                     25                     26                     27
                      A                      A                      A
 Frequencies --    854.9755               874.2508               888.2814
 Red. masses --      4.3846                 6.4338                 1.3495
 Frc consts  --      1.8884                 2.8973                 0.6274
 IR Inten    --      5.7526                66.0151                 2.7995

                     28                     29                     30
                      A                      A                      A
 Frequencies --    955.3376               966.8802               976.0545
 Red. masses --      2.1078                 1.6401                 5.4887
 Frc consts  --      1.1334                 0.9034                 3.0808
 IR Inten    --      2.8249                17.3150               319.0817

                     31                     32                     33
                      A                      A                      A
 Frequencies --    990.2642              1015.2218              1040.0843
 Red. masses --      2.6766                 1.2954                 2.6948
 Frc consts  --      1.5464                 0.7867                 1.7176
 IR Inten    --     67.8431                 0.0577                73.2431

                     34                     35                     36
                      A                      A                      A
 Frequencies --   1046.7051              1062.7250              1102.8994
 Red. masses --      2.0110                 3.9424                 2.5335
 Frc consts  --      1.2981                 2.6234                 1.8157
 IR Inten    --     32.4376               605.9187               234.8829

                     37                     38                     39
                      A                      A                      A
 Frequencies --   1119.0141              1123.2770              1166.2408
 Red. masses --      2.0134                 1.6379                 1.1197
 Frc consts  --      1.4855                 1.2176                 0.8973
 IR Inten    --    126.1139                26.4377                 1.7248

                     40                     41                     42
                      A                      A                      A
 Frequencies --   1171.0055              1199.3033              1251.4854
 Red. masses --      2.5658                 3.2098                 2.6389
 Frc consts  --      2.0730                 2.7201                 2.4351
 IR Inten    --    471.8803                38.6666                72.2183

                     43                     44                     45
                      A                      A                      A
 Frequencies --   1273.4409              1279.2581              1301.7069
 Red. masses --      1.2542                 1.7831                 1.3592
 Frc consts  --      1.1983                 1.7193                 1.3569
 IR Inten    --     38.2822                23.4939                 3.8817

                     46                     47                     48
                      A                      A                      A
 Frequencies --   1344.8137              1362.7168              1378.2506
 Red. masses --      1.7062                 1.3924                 3.5535
 Frc consts  --      1.8180                 1.5234                 3.9771
 IR Inten    --      8.4466                 4.0593                18.1617

                     49                     50                     51
                      A                      A                      A
 Frequencies --   1455.1114              1505.5153              1510.6296
 Red. masses --      1.1060                 1.8193                 1.3398
 Frc consts  --      1.3797                 2.4295                 1.8013
 IR Inten    --     22.5482                60.6118                26.0491

                     52                     53                     54
                      A                      A                      A
 Frequencies --   1523.7367              1681.7371              1697.6036
 Red. masses --      2.9430                 7.1949                 7.9822
 Frc consts  --      4.0258                11.9892                13.5533
 IR Inten    --     76.6080                50.3582                 7.7328

                     55                     56                     57
                      A                      A                      A
 Frequencies --   3093.4554              3113.5006              3190.1687
 Red. masses --      1.0639                 1.0673                 1.1024
 Frc consts  --      5.9984                 6.0960                 6.6101
 IR Inten    --     12.5948                28.7129                 3.1544

                     58                     59                     60
                      A                      A                      A
 Frequencies --   3196.7090              3229.0856              3236.0480
 Red. masses --      1.1010                 1.0875                 1.0917
 Frc consts  --      6.6289                 6.6812                 6.7358
 IR Inten    --      3.7690                 0.0622                 9.7784

                     61                     62                     63
                      A                      A                      A
 Frequencies --   3246.6260              3254.1922              3510.7908
 Red. masses --      1.0956                 1.0968                 1.0737
 Frc consts  --      6.8040                 6.8434                 7.7973
 IR Inten    --     15.3563                 2.8479                36.8425

 - Thermochemistry -
 -------------------
 Temperature   298.150 Kelvin.  Pressure   1.00000 Atm.
 Atom     1 has atomic number 16 and mass  31.97207

 Molecular mass:   213.03339 amu.
 Principal axes and moments of inertia in atomic units:
                           1         2         3
     Eigenvalues --  1096.823545341.586095690.95137
           X            0.99995   0.00568  -0.00847
           Y           -0.00562   0.99996   0.00649
           Z            0.00851  -0.00644   0.99994
 This molecule is an asymmetric top.
 Rotational symmetry number  1.
 Warning -- assumption of classical behavior for rotation
           may cause significant error
 Rotational temperatures (Kelvin)      0.07897     0.01622     0.01522
 Rotational constants (GHZ):           1.64543     0.33787     0.31712
 Zero-point vibrational energy     452457.1 (Joules/Mol)
                                  108.13984 (Kcal/Mol)
 Warning -- explicit consideration of  19 degrees of freedom as
           vibrations may cause significant error
 Vibrational temperatures:     39.08    60.56   133.20   196.24   258.15
          (Kelvin)            339.07   409.23   427.27   465.75   554.60
                              595.92   614.67   676.17   703.24   714.43
                              768.23   804.08   818.14   889.55  1040.94
                             1049.99  1113.60  1148.50  1222.97  1230.12
                             1257.85  1278.04  1374.52  1391.12  1404.32
                             1424.77  1460.68  1496.45  1505.98  1529.02
                             1586.83  1610.01  1616.15  1677.96  1684.82
                             1725.53  1800.61  1832.20  1840.57  1872.87
                             1934.89  1960.65  1983.00  2093.58  2166.10
                             2173.46  2192.32  2419.64  2442.47  4450.79
                             4479.63  4589.94  4599.35  4645.93  4655.95
                             4671.17  4682.06  5051.24

 Zero-point correction=                           0.172332 (Hartree/Particle)
 Thermal correction to Energy=                    0.184124
 Thermal correction to Enthalpy=                  0.185069
 Thermal correction to Gibbs Free Energy=         0.132930
 Sum of electronic and zero-point Energies=          -1043.215397
 Sum of electronic and thermal Energies=             -1043.203604
 Sum of electronic and thermal Enthalpies=           -1043.202660
 Sum of electronic and thermal Free Energies=        -1043.254798

                     E (Thermal)             CV                S
                      KCal/Mol        Cal/Mol-Kelvin    Cal/Mol-Kelvin
 Total                  115.540             45.961            109.734
 Electronic               0.000              0.000              0.000
 Translational            0.889              2.981             41.972
 Rotational               0.889              2.981             31.878
 Vibrational            113.762             39.999             35.884
 Vibration     1          0.593              1.984              6.027
 Vibration     2          0.595              1.980              5.158
 Vibration     3          0.602              1.954              3.605
 Vibration     4          0.614              1.917              2.854
 Vibration     5          0.629              1.868              2.334
 Vibration     6          0.655              1.786              1.835
 Vibration     7          0.683              1.703              1.507
 Vibration     8          0.691              1.679              1.434
 Vibration     9          0.708              1.628              1.291
 Vibration    10          0.754              1.501              1.018
 Vibration    11          0.778              1.439              0.912
 Vibration    12          0.789              1.411              0.868
 Vibration    13          0.827              1.317              0.738
 Vibration    14          0.845              1.275              0.687
 Vibration    15          0.852              1.258              0.667
 Vibration    16          0.889              1.175              0.578
 Vibration    17          0.914              1.120              0.526
 Vibration    18          0.925              1.099              0.507
 Vibration    19          0.978              0.993              0.419

                           ! Non-Optimized Parameters !
 Normal termination of Gaussian 16 at Sat Jul  2 01:46:13 2022.
