 Gaussian 16, Revision C.01,
 Gaussian 16:  ES64L-G16RevC.01  3-Jul-2019

 ----------------------------------------------------------------------
 #m062X/gen 6D OPT Freq=Noraman INT(grid=ultrafine) SCRF=(SMD,Solvent=h
 2o)
 ----------------------------------------------------------------------

 --------
 a2 b2 c2
 --------
 Symbolic Z-matrix:
 Charge = -1 Multiplicity = 1

 SCF Done:  E(RM062X) =  -890.850060997     A.U. after   15 cycles
 SCF Done:  E(RM062X) =  -890.857194012     A.U. after   14 cycles
 SCF Done:  E(RM062X) =  -890.859722234     A.U. after   14 cycles
 SCF Done:  E(RM062X) =  -890.862722278     A.U. after   14 cycles
 SCF Done:  E(RM062X) =  -890.864725705     A.U. after   14 cycles
 SCF Done:  E(RM062X) =  -890.865935057     A.U. after   14 cycles
 SCF Done:  E(RM062X) =  -890.866164292     A.U. after   13 cycles
 SCF Done:  E(RM062X) =  -890.866233469     A.U. after   13 cycles
 SCF Done:  E(RM062X) =  -890.866241454     A.U. after   11 cycles
 SCF Done:  E(RM062X) =  -890.866243120     A.U. after   10 cycles
 SCF Done:  E(RM062X) =  -890.866244196     A.U. after   11 cycles
 SCF Done:  E(RM062X) =  -890.866244424     A.U. after    9 cycles
 SCF Done:  E(RM062X) =  -890.866244735     A.U. after   10 cycles
 SCF Done:  E(RM062X) =  -890.866244827     A.U. after    9 cycles
 Optimization completed.
    -- Stationary point found.
 Normal termination of Gaussian 16 at Thu May 19 19:11:42 2022.

 ------------------------------------------------------------------
 #N Geom=AllCheck Guess=TCheck SCRF=Check GenChk RM062X/ChkBas Freq
 ------------------------------------------------------------------

 Structure from the checkpoint file:  "/jobfs/40662236.gadi-pbs/Gau-3479185.chk"
 --------
 a2 b2 c2
 --------
 Charge = -1 Multiplicity = 1

                         Standard orientation:
 ---------------------------------------------------------------------
 Center     Atomic      Atomic             Coordinates (Angstroms)
 Number     Number       Type             X           Y           Z
 ---------------------------------------------------------------------
      1          6           0        0.140800    0.006081   -0.027428
      2          6           0       -0.553713    1.213080    0.000819
      3          1           0       -0.005556    2.150678    0.016132
      4          6           0       -1.945189    1.219715    0.007329
      5          1           0       -2.486327    2.162383    0.024404
      6          6           0       -2.663294    0.014627   -0.006401
      7          7           0       -4.052289    0.017091   -0.060915
      8          6           0       -1.951408   -1.198420   -0.030472
      9          1           0       -2.500174   -2.136786   -0.042824
     10          6           0       -0.563797   -1.200963   -0.039988
     11          1           0       -0.028429   -2.146581   -0.059673
     12         16           0        1.933408   -0.014187    0.015168
     13          8           0        2.295251   -0.449035    1.398387
     14          8           0        2.303549   -1.035226   -1.019190
     15          7           0        2.501669    1.419519   -0.230129
     16          1           0        2.347060    1.661630   -1.212327
     17          1           0       -4.487349    0.854014    0.314052
     18          1           0       -4.490209   -0.825252    0.298115
 ---------------------------------------------------------------------

 SCF Done:  E(RM062X) =  -890.866244827     A.U. after    1 cycles

 The electronic state is 1-A.
 Alpha  occ. eigenvalues --  -90.12968 -19.61474 -19.61445 -14.76518 -14.71516
 Alpha  occ. eigenvalues --  -10.59964 -10.56470 -10.56223 -10.56097 -10.55152
 Alpha  occ. eigenvalues --  -10.55026  -8.43861  -6.36101  -6.36003  -6.35937
 Alpha  occ. eigenvalues --   -1.20018  -1.08280  -1.02864  -0.96295  -0.94538
 Alpha  occ. eigenvalues --   -0.84806  -0.83407  -0.71793  -0.70211  -0.65395
 Alpha  occ. eigenvalues --   -0.60485  -0.58198  -0.57166  -0.54602  -0.52132
 Alpha  occ. eigenvalues --   -0.51039  -0.49574  -0.48693  -0.47001  -0.45696
 Alpha  occ. eigenvalues --   -0.41249  -0.40420  -0.40124  -0.38559  -0.36183
 Alpha  occ. eigenvalues --   -0.35049  -0.32761  -0.31360  -0.29587  -0.26297
 Alpha virt. eigenvalues --    0.01540   0.01833   0.02018   0.03213   0.04079
 Alpha virt. eigenvalues --    0.04985   0.05277   0.05678   0.06539   0.08433
 Alpha virt. eigenvalues --    0.08711   0.08946   0.09953   0.10466   0.12292

 Mulliken charges:
               1
     1  C   -1.058875
     2  C   -0.433512
     3  H    0.261240
     4  C   -0.025085
     5  H    0.247476
     6  C    0.251708
     7  N   -0.936741
     8  C    0.088704
     9  H    0.248701
    10  C   -0.181325
    11  H    0.259312
    12  S    1.506356
    13  O   -0.740795
    14  O   -0.723899
    15  N   -1.055059
    16  H    0.408829
    17  H    0.441639
    18  H    0.441327
 Sum of Mulliken charges =  -1.00000

 Dipole moment (field-independent basis, Debye):
    X=            -17.6041    Y=              1.2194    Z=             -0.8940  Tot=             17.6689
 Quadrupole moment (field-independent basis, Debye-Ang):
   XX=            -97.3472   YY=            -74.5370   ZZ=            -86.5005
   XY=              1.6828   XZ=            -12.3613   YZ=             -3.9394

  Exact polarizability:     218.392       3.477     174.089       0.318       1.097     111.994
 Approx polarizability:     172.006       1.852     153.071       0.788       1.104     100.195

                      1                      2                      3
                      A                      A                      A
 Frequencies --     24.4310                93.0452               169.8087
 Red. masses --      5.1147                 6.0763                 5.5592
 Frc consts  --      0.0018                 0.0310                 0.0944
 IR Inten    --      3.5563                 5.1095                 4.4521

                      4                      5                      6
                      A                      A                      A
 Frequencies --    216.3704               282.9855               299.2762
 Red. masses --      5.3031                 5.4549                 3.1338
 Frc consts  --      0.1463                 0.2574                 0.1654
 IR Inten    --     10.0655                 2.3433                97.8741

                      7                      8                      9
                      A                      A                      A
 Frequencies --    352.8984               363.9995               409.4395
 Red. masses --      1.5952                 1.7268                 3.2946
 Frc consts  --      0.1170                 0.1348                 0.3254
 IR Inten    --     75.0206                20.5477                 7.6177

                     10                     11                     12
                      A                      A                      A
 Frequencies --    418.0695               441.8866               487.5031
 Red. masses --      3.1724                 2.5679                 2.5678
 Frc consts  --      0.3267                 0.2954                 0.3596
 IR Inten    --      1.5316                29.9547               170.3312

                     13                     14                     15
                      A                      A                      A
 Frequencies --    516.9911               535.2078               550.2563
 Red. masses --     10.0036                 2.4789                 7.8136
 Frc consts  --      1.5753                 0.4184                 1.3939
 IR Inten    --     71.2117               271.0731               348.8905

                     16                     17                     18
                      A                      A                      A
 Frequencies --    611.8470               644.8098               673.9878
 Red. masses --      1.5403                 6.9526                 7.1252
 Frc consts  --      0.3397                 1.7032                 1.9070
 IR Inten    --    389.1150                 0.1299               159.9117

                     19                     20                     21
                      A                      A                      A
 Frequencies --    731.0005               846.1346               847.6815
 Red. masses --      3.7805                 2.1918                 1.5169
 Frc consts  --      1.1902                 0.9246                 0.6422
 IR Inten    --     22.4257                26.2776                 6.9411

                     22                     23                     24
                      A                      A                      A
 Frequencies --    858.5131               955.9324               978.7267
 Red. masses --      2.1645                13.0524                 1.3017
 Frc consts  --      0.9400                 7.0274                 0.7346
 IR Inten    --     99.6175               396.8763                 0.2107

                     25                     26                     27
                      A                      A                      A
 Frequencies --    997.9954              1028.8690              1057.3931
 Red. masses --      1.3425                 3.0866                 4.7268
 Frc consts  --      0.7878                 1.9251                 3.1138
 IR Inten    --      0.1686                23.9913               704.1315

                     28                     29                     30
                      A                      A                      A
 Frequencies --   1097.1581              1105.8385              1136.7791
 Red. masses --      2.5124                 1.8284                 2.7970
 Frc consts  --      1.7819                 1.3174                 2.1296
 IR Inten    --    321.3195               144.9706               201.8293

                     31                     32                     33
                      A                      A                      A
 Frequencies --   1153.0044              1165.8373              1199.8380
 Red. masses --      1.1886                 1.9305                 1.1909
 Frc consts  --      0.9310                 1.5459                 1.0102
 IR Inten    --     14.1707               318.8617                 3.3014

                     34                     35                     36
                      A                      A                      A
 Frequencies --   1320.7866              1328.7202              1365.8008
 Red. masses --      2.1992                 1.8433                 3.9465
 Frc consts  --      2.2604                 1.9174                 4.3375
 IR Inten    --    117.3864                71.6311                10.0021

                     37                     38                     39
                      A                      A                      A
 Frequencies --   1473.9173              1548.6396              1651.8948
 Red. masses --      3.1531                 2.6228                 1.3111
 Frc consts  --      4.0359                 3.7061                 2.1079
 IR Inten    --      7.2043               134.9754                31.7352

                     40                     41                     42
                      A                      A                      A
 Frequencies --   1656.3687              1678.0126              3220.6092
 Red. masses --      5.8582                 4.1096                 1.0887
 Frc consts  --      9.4696                 6.8177                 6.6534
 IR Inten    --     33.0804               399.1439                 8.4321

                     43                     44                     45
                      A                      A                      A
 Frequencies --   3222.2225              3234.3715              3240.5516
 Red. masses --      1.0900                 1.0952                 1.0937
 Frc consts  --      6.6677                 6.7500                 6.7671
 IR Inten    --      8.2533                 8.1812                 4.0658

                     46                     47                     48
                      A                      A                      A
 Frequencies --   3507.0644              3557.9616              3655.8459
 Red. masses --      1.0734                 1.0494                 1.0994
 Frc consts  --      7.7787                 7.8270                 8.6571
 IR Inten    --     36.6982               102.8125                77.4949

 - Thermochemistry -
 -------------------
 Temperature   298.150 Kelvin.  Pressure   1.00000 Atm.
 Atom     1 has atomic number  6 and mass  12.00000

 Molecular mass:   171.02282 amu.
 Principal axes and moments of inertia in atomic units:
                           1         2         3
     Eigenvalues --   684.964253208.616363534.05314
           X            0.99996   0.00497  -0.00692
           Y           -0.00510   0.99981  -0.01866
           Z            0.00682   0.01869   0.99980
 This molecule is an asymmetric top.
 Rotational symmetry number  1.
 Warning -- assumption of classical behavior for rotation
           may cause significant error
 Rotational temperatures (Kelvin)      0.12645     0.02699     0.02451
 Rotational constants (GHZ):           2.63480     0.56247     0.51067
 Zero-point vibrational energy     346416.3 (Joules/Mol)
                                   82.79548 (Kcal/Mol)
 Warning -- explicit consideration of  16 degrees of freedom as
           vibrations may cause significant error
 Vibrational temperatures:     35.15   133.87   244.32   311.31   407.15
          (Kelvin)            430.59   507.74   523.71   589.09   601.51
                              635.78   701.41   743.83   770.04   791.70
                              880.31   927.74   969.72  1051.75  1217.40
                             1219.62  1235.21  1375.37  1408.17  1435.89
                             1480.31  1521.35  1578.57  1591.05  1635.57
                             1658.92  1677.38  1726.30  1900.32  1911.73
                             1965.08  2120.64  2228.15  2376.71  2383.15
                             2414.29  4633.74  4636.06  4653.54  4662.43
                             5045.88  5119.11  5259.95

 Zero-point correction=                           0.131943 (Hartree/Particle)
 Thermal correction to Energy=                    0.141889
 Thermal correction to Enthalpy=                  0.142833
 Thermal correction to Gibbs Free Energy=         0.095749
 Sum of electronic and zero-point Energies=           -890.734302
 Sum of electronic and thermal Energies=              -890.724356
 Sum of electronic and thermal Enthalpies=            -890.723412
 Sum of electronic and thermal Free Energies=         -890.770495

                     E (Thermal)             CV                S
                      KCal/Mol        Cal/Mol-Kelvin    Cal/Mol-Kelvin
 Total                   89.037             38.477             99.096
 Electronic               0.000              0.000              0.000
 Translational            0.889              2.981             41.318
 Rotational               0.889              2.981             30.430
 Vibrational             87.259             32.515             27.348
 Vibration     1          0.593              1.985              6.237
 Vibration     2          0.602              1.954              3.595
 Vibration     3          0.625              1.880              2.438
 Vibration     4          0.645              1.816              1.989
 Vibration     5          0.682              1.705              1.516
 Vibration     6          0.692              1.675              1.421
 Vibration     7          0.729              1.569              1.153
 Vibration     8          0.738              1.546              1.105
 Vibration     9          0.774              1.450              0.929
 Vibration    10          0.781              1.431              0.899
 Vibration    11          0.802              1.379              0.821
 Vibration    12          0.843              1.278              0.690
 Vibration    13          0.872              1.212              0.617
 Vibration    14          0.890              1.172              0.576
 Vibration    15          0.906              1.139              0.544
 Vibration    16          0.971              1.007              0.430

                           ! Non-Optimized Parameters !
 Normal termination of Gaussian 16 at Thu May 19 19:14:41 2022.
