 Gaussian 16, Revision C.01,
 Gaussian 16:  ES64L-G16RevC.01  3-Jul-2019

 -----------------------------------------------------
 #m062X/gen 6D OPT Freq=noraman SCRF=(SMD,Solvent=h2o)
 -----------------------------------------------------

 -----------------
 A.40.smd.a3b3.smd
 -----------------
 Symbolic Z-matrix:
 Charge = -1 Multiplicity = 1

 SCF Done:  E(RM062X) =  -1123.00811809     A.U. after   16 cycles
 SCF Done:  E(RM062X) =  -1123.01286387     A.U. after   13 cycles
 SCF Done:  E(RM062X) =  -1123.01372866     A.U. after   14 cycles
 SCF Done:  E(RM062X) =  -1123.01428107     A.U. after   13 cycles
 SCF Done:  E(RM062X) =  -1123.01488268     A.U. after   12 cycles
 SCF Done:  E(RM062X) =  -1123.01501386     A.U. after   13 cycles
 SCF Done:  E(RM062X) =  -1123.01507854     A.U. after   13 cycles
 SCF Done:  E(RM062X) =  -1123.01516619     A.U. after   12 cycles
 SCF Done:  E(RM062X) =  -1123.01516823     A.U. after   11 cycles
 SCF Done:  E(RM062X) =  -1123.01516867     A.U. after   10 cycles
 SCF Done:  E(RM062X) =  -1123.01516876     A.U. after    8 cycles
 Optimization completed.
    -- Stationary point found.
 Normal termination of Gaussian 16 at Sat Jul  2 01:56:46 2022.

 ------------------------------------------------------------------
 #N Geom=AllCheck Guess=TCheck SCRF=Check GenChk RM062X/ChkBas Freq
 ------------------------------------------------------------------

 Structure from the checkpoint file:  "/jobfs/50001310.gadi-pbs/Gau-354023.chk"
 -----------------
 A.40.smd.a3b3.smd
 -----------------
 Charge = -1 Multiplicity = 1

                         Standard orientation:
 ---------------------------------------------------------------------
 Center     Atomic      Atomic             Coordinates (Angstroms)
 Number     Number       Type             X           Y           Z
 ---------------------------------------------------------------------
      1          6           0        1.055281    0.411539   -0.139849
      2          6           0        1.075956    1.825169   -0.301265
      3          6           0       -0.085192    2.555111   -0.314656
      4          6           0       -1.332867    1.906411   -0.165864
      5          6           0       -1.390815    0.541363   -0.046758
      6          6           0       -0.203101   -0.259291   -0.046024
      7         16           0       -3.029693   -0.219809    0.078841
      8          8           0       -3.100219   -1.094778   -1.136069
      9          8           0       -3.000009   -0.987717    1.357017
     10          7           0       -4.135129    0.874897    0.162348
     11          1           0       -4.271630    1.270038   -0.771325
     12          6           0       -0.226459   -1.681756    0.020012
     13          6           0        0.947896   -2.388506   -0.012826
     14          6           0        2.199387   -1.732943   -0.072241
     15          6           0        2.274943   -0.355788   -0.112073
     16          7           0        3.513013    0.340301   -0.155723
     17          6           0        3.807422    1.039225    1.103152
     18          6           0        4.664894   -0.473166   -0.528876
     19          1           0        2.027471    2.328558   -0.432000
     20          1           0       -0.054061    3.632469   -0.445019
     21          1           0       -2.250405    2.486529   -0.155511
     22          1           0       -1.171702   -2.206166    0.085344
     23          1           0        0.925496   -3.473947    0.025298
     24          1           0        3.101855   -2.333890   -0.070714
     25          1           0        2.954422    1.631012    1.436337
     26          1           0        4.658596    1.708889    0.952321
     27          1           0        4.062116    0.320834    1.898899
     28          1           0        4.469226   -1.000078   -1.465893
     29          1           0        4.935554   -1.209022    0.244959
     30          1           0        5.520712    0.191094   -0.674508
 ---------------------------------------------------------------------

 SCF Done:  E(RM062X) =  -1123.01516876     A.U. after    1 cycles

 The electronic state is 1-A.
 Alpha  occ. eigenvalues --  -90.13281 -19.61732 -19.61712 -14.77030 -14.71773
 Alpha  occ. eigenvalues --  -10.59230 -10.57740 -10.57554 -10.56896 -10.56199
 Alpha  occ. eigenvalues --  -10.56116 -10.55885 -10.55859 -10.55649 -10.55490
 Alpha  occ. eigenvalues --  -10.54939 -10.54931  -8.44160  -6.36398  -6.36305
 Alpha  occ. eigenvalues --   -6.36236  -1.20403  -1.08716  -1.05033  -0.98178
 Alpha  occ. eigenvalues --   -0.96186  -0.92543  -0.87542  -0.84359  -0.82316
 Alpha  occ. eigenvalues --   -0.79500  -0.74101  -0.72899  -0.70147  -0.67988
 Alpha  occ. eigenvalues --   -0.64345  -0.59623  -0.58670  -0.57552  -0.56180
 Alpha  occ. eigenvalues --   -0.54655  -0.53897  -0.52759  -0.52030  -0.51680
 Alpha  occ. eigenvalues --   -0.49775  -0.48361  -0.47153  -0.46579  -0.45586
 Alpha  occ. eigenvalues --   -0.44650  -0.43950  -0.42478  -0.41702  -0.41054
 Alpha  occ. eigenvalues --   -0.40322  -0.39744  -0.39061  -0.37807  -0.34954
 Alpha  occ. eigenvalues --   -0.34517  -0.32734  -0.30278  -0.30091  -0.29910
 Alpha  occ. eigenvalues --   -0.25544
 Alpha virt. eigenvalues --   -0.02255   0.00730   0.02129   0.03166   0.03466
 Alpha virt. eigenvalues --    0.04027   0.04389   0.04832   0.05016   0.05262
 Alpha virt. eigenvalues --    0.05505   0.06401   0.07077   0.07321   0.07742

 Mulliken charges:
               1
     1  C   -0.322018
     2  C   -0.189784
     3  C   -0.344380
     4  C   -0.065719
     5  C   -0.589978
     6  C    0.643625
     7  S    1.515339
     8  O   -0.712102
     9  O   -0.728981
    10  N   -1.014119
    11  H    0.410728
    12  C   -0.112419
    13  C   -1.260973
    14  C    0.018659
    15  C    0.053193
    16  N   -0.358190
    17  C   -0.463920
    18  C   -0.440757
    19  H    0.265374
    20  H    0.251772
    21  H    0.262768
    22  H    0.260100
    23  H    0.247852
    24  H    0.245873
    25  H    0.239134
    26  H    0.241661
    27  H    0.233495
    28  H    0.239381
    29  H    0.235645
    30  H    0.238742
 Sum of Mulliken charges =  -1.00000

 Dipole moment (field-independent basis, Debye):
    X=             20.5006    Y=              4.4325    Z=             -1.8194  Tot=             21.0531
 Quadrupole moment (field-independent basis, Debye-Ang):
   XX=           -161.3314   YY=           -105.4705   ZZ=           -124.7312
   XY=            -13.9164   XZ=             12.8030   YZ=             -2.0473

  Exact polarizability:     335.572     -17.566     323.966      -1.832      -6.355     179.262
 Approx polarizability:     265.811     -13.860     277.670      -3.024      -5.894     158.730

                      1                      2                      3
                      A                      A                      A
 Frequencies --     44.1243                65.5483               100.5320
 Red. masses --      5.1763                 6.8024                 3.1568
 Frc consts  --      0.0059                 0.0172                 0.0188
 IR Inten    --      1.6274                 5.0130                 4.7965

                      4                      5                      6
                      A                      A                      A
 Frequencies --    132.7381               136.6981               170.4712
 Red. masses --      4.1573                 4.4919                 3.7524
 Frc consts  --      0.0432                 0.0495                 0.0642
 IR Inten    --      3.4157                10.8788                 6.5497

                      7                      8                      9
                      A                      A                      A
 Frequencies --    184.2730               215.0789               243.2392
 Red. masses --      2.5266                 3.8374                 1.6668
 Frc consts  --      0.0505                 0.1046                 0.0581
 IR Inten    --      4.0973                 4.4539                 3.6280

                     10                     11                     12
                      A                      A                      A
 Frequencies --    264.8266               306.6740               310.9596
 Red. masses --      4.1049                 4.6899                 3.8581
 Frc consts  --      0.1696                 0.2599                 0.2198
 IR Inten    --      5.2450                24.7105                16.1997

                     13                     14                     15
                      A                      A                      A
 Frequencies --    343.4579               353.8528               363.8352
 Red. masses --      1.2012                 3.6404                 2.6672
 Frc consts  --      0.0835                 0.2686                 0.2080
 IR Inten    --      6.8544                 8.9034                17.0929

                     16                     17                     18
                      A                      A                      A
 Frequencies --    411.3626               418.0446               475.3209
 Red. masses --      2.6219                 2.7086                 3.9552
 Frc consts  --      0.2614                 0.2789                 0.5265
 IR Inten    --     19.6184                68.4620                21.4006

                     19                     20                     21
                      A                      A                      A
 Frequencies --    479.0765               492.7741               508.0684
 Red. masses --      5.9529                 2.1203                 4.2592
 Frc consts  --      0.8050                 0.3034                 0.6478
 IR Inten    --     16.7027               179.0933                15.0185

                     22                     23                     24
                      A                      A                      A
 Frequencies --    539.3332               551.0376               566.3434
 Red. masses --      6.6082                 5.4099                 5.5137
 Frc consts  --      1.1325                 0.9678                 1.0420
 IR Inten    --     16.0918                72.3518                11.9895

                     25                     26                     27
                      A                      A                      A
 Frequencies --    575.4695               606.2775               634.6085
 Red. masses --      8.6503                 3.2166                 5.9564
 Frc consts  --      1.6878                 0.6966                 1.4133
 IR Inten    --    187.4703                 4.7111               130.3221

                     28                     29                     30
                      A                      A                      A
 Frequencies --    703.8334               756.1133               780.5815
 Red. masses --      4.7798                 1.5717                 6.0282
 Frc consts  --      1.3951                 0.5294                 2.1641
 IR Inten    --      5.7228                 4.9612                 1.7128

                     31                     32                     33
                      A                      A                      A
 Frequencies --    812.8481               817.3174               843.0797
 Red. masses --      5.1373                 1.3550                 2.8474
 Frc consts  --      1.9999                 0.5333                 1.1924
 IR Inten    --      6.0627               211.3263                 2.5065

                     34                     35                     36
                      A                      A                      A
 Frequencies --    857.3171               927.0661               952.6653
 Red. masses --      4.5567                 1.4251                 7.6368
 Frc consts  --      1.9733                 0.7216                 4.0836
 IR Inten    --      9.9662                 3.3021               342.1802

                     37                     38                     39
                      A                      A                      A
 Frequencies --    965.6988               985.2428              1013.8509
 Red. masses --      1.3836                 4.3295                 1.3193
 Frc consts  --      0.7602                 2.4761                 0.7990
 IR Inten    --      2.8069                67.6883                 1.0573

                     40                     41                     42
                      A                      A                      A
 Frequencies --   1030.3826              1061.9322              1080.7298
 Red. masses --      1.3175                 4.0439                 1.7170
 Frc consts  --      0.8241                 2.6869                 1.1816
 IR Inten    --      2.0305               701.2543                53.7000

                     43                     44                     45
                      A                      A                      A
 Frequencies --   1087.7745              1098.5949              1109.7339
 Red. masses --      3.0313                 2.0828                 3.4518
 Frc consts  --      2.1133                 1.4811                 2.5045
 IR Inten    --     59.2198               167.8032               333.7310

                     46                     47                     48
                      A                      A                      A
 Frequencies --   1125.1266              1137.9814              1170.2076
 Red. masses --      1.5679                 1.5646                 2.2863
 Frc consts  --      1.1694                 1.1938                 1.8446
 IR Inten    --     46.4699                13.9845               358.7380

                     49                     50                     51
                      A                      A                      A
 Frequencies --   1178.8116              1188.1171              1195.9396
 Red. masses --      1.3141                 1.4441                 1.2429
 Frc consts  --      1.0759                 1.2011                 1.0474
 IR Inten    --      0.7946                34.3194                16.0535

                     52                     53                     54
                      A                      A                      A
 Frequencies --   1221.9870              1232.1591              1237.7032
 Red. masses --      2.1399                 1.9928                 1.7186
 Frc consts  --      1.8827                 1.7826                 1.5512
 IR Inten    --     13.2915                16.8720                10.9222

                     55                     56                     57
                      A                      A                      A
 Frequencies --   1266.2790              1350.7309              1374.9255
 Red. masses --      2.4343                 2.4464                 3.3847
 Frc consts  --      2.2997                 2.6297                 3.7699
 IR Inten    --     22.3665                80.9583                 8.6107

                     58                     59                     60
                      A                      A                      A
 Frequencies --   1416.1704              1441.5684              1453.7682
 Red. masses --      6.3163                 2.3577                 2.2496
 Frc consts  --      7.4635                 2.8867                 2.8012
 IR Inten    --     34.8919                64.9232                40.2408

                     61                     62                     63
                      A                      A                      A
 Frequencies --   1461.0592              1484.8496              1496.9150
 Red. masses --      1.2504                 1.2831                 1.0497
 Frc consts  --      1.5727                 1.6668                 1.3858
 IR Inten    --     10.0192                 4.5542                 7.4014

                     64                     65                     66
                      A                      A                      A
 Frequencies --   1505.8864              1512.5034              1519.4892
 Red. masses --      1.1989                 1.7423                 1.0767
 Frc consts  --      1.6019                 2.3484                 1.4647
 IR Inten    --     56.7469                20.1623                26.0990

                     67                     68                     69
                      A                      A                      A
 Frequencies --   1532.9630              1568.3018              1655.1650
 Red. masses --      1.0812                 4.2791                 7.4951
 Frc consts  --      1.4971                 6.2010                12.0979
 IR Inten    --     40.0951                35.7719               101.0021

                     70                     71                     72
                      A                      A                      A
 Frequencies --   1674.5385              1700.3867              3029.2161
 Red. masses --      5.6621                 6.7531                 1.0552
 Frc consts  --      9.3545                11.5040                 5.7050
 IR Inten    --     20.9897                22.3997               142.6151

                     73                     74                     75
                      A                      A                      A
 Frequencies --   3032.3975              3135.3357              3140.2569
 Red. masses --      1.0523                 1.0814                 1.0829
 Frc consts  --      5.7013                 6.2632                 6.2920
 IR Inten    --    103.2157                51.6042                48.3658

                     76                     77                     78
                      A                      A                      A
 Frequencies --   3180.1762              3201.7717              3229.2411
 Red. masses --      1.1051                 1.1008                 1.0905
 Frc consts  --      6.5849                 6.6486                 6.7000
 IR Inten    --     29.2024                22.9519                17.2764

                     79                     80                     81
                      A                      A                      A
 Frequencies --   3235.5085              3247.2302              3261.0071
 Red. masses --      1.0888                 1.0927                 1.0932
 Frc consts  --      6.7157                 6.7887                 6.8495
 IR Inten    --      5.7749                 2.7429                 8.6450

                     82                     83                     84
                      A                      A                      A
 Frequencies --   3261.3060              3274.9751              3507.0759
 Red. masses --      1.0930                 1.0932                 1.0738
 Frc consts  --      6.8492                 6.9084                 7.7815
 IR Inten    --      5.1848                 3.9178                45.3138

 - Thermochemistry -
 -------------------
 Temperature   298.150 Kelvin.  Pressure   1.00000 Atm.
 Atom     1 has atomic number  6 and mass  12.00000

 Molecular mass:   249.06977 amu.
 Principal axes and moments of inertia in atomic units:
                           1         2         3
     Eigenvalues --  1829.187466730.562987971.57841
           X            0.99996  -0.00674   0.00568
           Y            0.00671   0.99997   0.00421
           Z           -0.00571  -0.00417   0.99998
 This molecule is an asymmetric top.
 Rotational symmetry number  1.
 Warning -- assumption of classical behavior for rotation
           may cause significant error
 Rotational temperatures (Kelvin)      0.04735     0.01287     0.01087
 Rotational constants (GHZ):           0.98664     0.26814     0.22640
 Zero-point vibrational energy     623361.0 (Joules/Mol)
                                  148.98685 (Kcal/Mol)
 Warning -- explicit consideration of  26 degrees of freedom as
           vibrations may cause significant error
 Vibrational temperatures:     63.49    94.31   144.64   190.98   196.68
          (Kelvin)            245.27   265.13   309.45   349.97   381.03
                              441.24   447.40   494.16   509.12   523.48
                              591.86   601.47   683.88   689.28   708.99
                              731.00   775.98   792.82   814.84   827.97
                              872.30   913.06  1012.66  1087.88  1123.08
                             1169.51  1175.94  1213.00  1233.49  1333.84
                             1370.67  1389.43  1417.54  1458.71  1482.49
                             1527.88  1554.93  1565.06  1580.63  1596.66
                             1618.81  1637.30  1683.67  1696.05  1709.44
                             1720.69  1758.17  1772.80  1780.78  1821.89
                             1943.40  1978.21  2037.55  2074.10  2091.65
                             2102.14  2136.37  2153.73  2166.63  2176.16
                             2186.21  2205.59  2256.44  2381.41  2409.29
                             2446.48  4358.37  4362.94  4511.05  4518.13
                             4575.56  4606.64  4646.16  4655.18  4672.04
                             4691.86  4692.29  4711.96  5045.90

 Zero-point correction=                           0.237426 (Hartree/Particle)
 Thermal correction to Energy=                    0.252319
 Thermal correction to Enthalpy=                  0.253263
 Thermal correction to Gibbs Free Energy=         0.195850
 Sum of electronic and zero-point Energies=          -1122.777743
 Sum of electronic and thermal Energies=             -1122.762850
 Sum of electronic and thermal Enthalpies=           -1122.761906
 Sum of electronic and thermal Free Energies=        -1122.819319

                     E (Thermal)             CV                S
                      KCal/Mol        Cal/Mol-Kelvin    Cal/Mol-Kelvin
 Total                  158.332             59.039            120.836
 Electronic               0.000              0.000              0.000
 Translational            0.889              2.981             42.438
 Rotational               0.889              2.981             32.951
 Vibrational            156.555             53.078             45.447
 Vibration     1          0.595              1.980              5.065
 Vibration     2          0.597              1.971              4.283
 Vibration     3          0.604              1.949              3.444
 Vibration     4          0.613              1.921              2.906
 Vibration     5          0.614              1.917              2.850
 Vibration     6          0.626              1.879              2.430
 Vibration     7          0.631              1.861              2.285
 Vibration     8          0.645              1.818              2.000
 Vibration     9          0.659              1.774              1.779
 Vibration    10          0.671              1.737              1.630
 Vibration    11          0.697              1.661              1.380
 Vibration    12          0.700              1.653              1.357
 Vibration    13          0.722              1.589              1.196
 Vibration    14          0.730              1.567              1.149
 Vibration    15          0.737              1.547              1.106
 Vibration    16          0.775              1.446              0.922
 Vibration    17          0.781              1.431              0.899
 Vibration    18          0.832              1.305              0.723
 Vibration    19          0.836              1.296              0.713
 Vibration    20          0.848              1.266              0.676
 Vibration    21          0.863              1.232              0.638
 Vibration    22          0.894              1.163              0.567
 Vibration    23          0.906              1.137              0.542
 Vibration    24          0.922              1.104              0.511
 Vibration    25          0.932              1.084              0.494
 Vibration    26          0.965              1.019              0.439

                           ! Non-Optimized Parameters !
 Normal termination of Gaussian 16 at Sat Jul  2 02:11:43 2022.
