 Gaussian 16, Revision C.01,
 Gaussian 16:  ES64L-G16RevC.01  3-Jul-2019

 -----------------------------------------------------
 #m062X/gen 6D OPT Freq=noraman SCRF=(SMD,Solvent=h2o)
 -----------------------------------------------------

 -----
 a1 b1
 -----
 Symbolic Z-matrix:
 Charge = -1 Multiplicity = 1

 SCF Done:  E(RM062X) =  -874.818809358     A.U. after   15 cycles
 Optimization completed.
    -- Stationary point found.
 Normal termination of Gaussian 16 at Thu May 19 14:54:05 2022.

 ------------------------------------------------------------------
 #N Geom=AllCheck Guess=TCheck SCRF=Check GenChk RM062X/ChkBas Freq
 ------------------------------------------------------------------

 Structure from the checkpoint file:  "/jobfs/40644941.gadi-pbs/Gau-1192637.chk"
 -----
 a1 b1
 -----
 Charge = -1 Multiplicity = 1

                         Standard orientation:
 ---------------------------------------------------------------------
 Center     Atomic      Atomic             Coordinates (Angstroms)
 Number     Number       Type             X           Y           Z
 ---------------------------------------------------------------------
      1          6           0        0.153286    0.020995   -0.055728
      2          6           0       -0.544213    1.223673   -0.013321
      3          1           0       -0.006125    2.166640   -0.011688
      4          6           0       -1.939979    1.207413    0.020504
      5          1           0       -2.484803    2.147908    0.048682
      6          6           0       -2.648502    0.003139    0.016798
      7          6           0       -4.153981   -0.018265    0.043184
      8          6           0       -1.923704   -1.197006   -0.021225
      9          1           0       -2.459069   -2.143834   -0.025314
     10          6           0       -0.533477   -1.195093   -0.056100
     11          1           0        0.013209   -2.134076   -0.088127
     12         16           0        1.951176    0.010050   -0.009389
     13          8           0        2.324787   -1.040040   -1.008897
     14          8           0        2.362278    1.384724   -0.405927
     15          7           0        2.450217   -0.269262    1.447891
     16          1           0        2.248661   -1.249841    1.663432
     17          1           0       -4.522052   -0.649856    0.858323
     18          1           0       -4.560279    0.988014    0.175146
     19          1           0       -4.552985   -0.427518   -0.891544
 ---------------------------------------------------------------------

 SCF Done:  E(RM062X) =  -874.818809358     A.U. after    1 cycles

 The electronic state is 1-A.
 Alpha  occ. eigenvalues --  -90.13208 -19.61861 -19.61728 -14.71632 -10.57295
 Alpha  occ. eigenvalues --  -10.56588 -10.56173 -10.56052 -10.55422 -10.55387
 Alpha  occ. eigenvalues --  -10.53551  -8.44108  -6.36354  -6.36255  -6.36172
 Alpha  occ. eigenvalues --   -1.20472  -1.08902  -0.97250  -0.95556  -0.87800
 Alpha  occ. eigenvalues --   -0.84728  -0.78579  -0.70376  -0.69532  -0.64888
 Alpha  occ. eigenvalues --   -0.60034  -0.55509  -0.54125  -0.52911  -0.51318
 Alpha  occ. eigenvalues --   -0.50750  -0.48942  -0.48528  -0.44435  -0.43623
 Alpha  occ. eigenvalues --   -0.41932  -0.41652  -0.39912  -0.39129  -0.37154
 Alpha  occ. eigenvalues --   -0.35734  -0.32936  -0.31515  -0.31249  -0.27996
 Alpha virt. eigenvalues --    0.00902   0.01494   0.02165   0.03645   0.04339
 Alpha virt. eigenvalues --    0.04888   0.05268   0.05901   0.06496   0.07050
 Alpha virt. eigenvalues --    0.07637   0.08446   0.09803   0.10318   0.10934

 Mulliken charges:
               1
     1  C   -1.282235
     2  C   -0.423260
     3  H    0.261045
     4  C   -0.779540
     5  H    0.244514
     6  C    0.116079
     7  C   -0.619880
     8  C   -0.016109
     9  H    0.246063
    10  C    0.790459
    11  H    0.259291
    12  S    1.530083
    13  O   -0.718104
    14  O   -0.789416
    15  N   -0.954877
    16  H    0.402574
    17  H    0.246765
    18  H    0.233185
    19  H    0.253362
 Sum of Mulliken charges =  -1.00000

 Dipole moment (field-independent basis, Debye):
    X=            -16.2451    Y=             -2.1563    Z=              0.8144  Tot=             16.4078
 Quadrupole moment (field-independent basis, Debye-Ang):
   XX=           -104.8633   YY=            -74.8103   ZZ=            -87.4064
   XY=             -4.3516   XZ=              0.6122   YZ=             -3.9550

  Exact polarizability:     209.999      -0.810     176.389       4.150       0.977     123.340
 Approx polarizability:     165.428       0.121     155.949       2.399       1.054     108.389

                      1                      2                      3
                      A                      A                      A
 Frequencies --     31.4130                49.1090                92.6072
 Red. masses --      4.7533                 1.0861                 4.0232
 Frc consts  --      0.0028                 0.0015                 0.0203
 IR Inten    --      0.4541                 0.1698                 1.7602

                      4                      5                      6
                      A                      A                      A
 Frequencies --    171.3093               211.7424               283.3304
 Red. masses --      5.4564                 3.9686                 4.8346
 Frc consts  --      0.0943                 0.1048                 0.2287
 IR Inten    --      6.6950                 2.6450                 4.5055

                      7                      8                      9
                      A                      A                      A
 Frequencies --    292.6681               344.4996               374.9065
 Red. masses --      3.1827                 3.0121                 3.5252
 Frc consts  --      0.1606                 0.2106                 0.2919
 IR Inten    --     73.8646                25.8945                15.0907

                     10                     11                     12
                      A                      A                      A
 Frequencies --    413.1829               444.0236               485.6324
 Red. masses --      2.9243                 2.3902                 4.1762
 Frc consts  --      0.2941                 0.2777                 0.5803
 IR Inten    --      0.2804                92.3290                20.2386

                     13                     14                     15
                      A                      A                      A
 Frequencies --    490.6467               541.9519               558.3092
 Red. masses --      3.9231                 4.8813                 5.5880
 Frc consts  --      0.5564                 0.8447                 1.0263
 IR Inten    --    116.1104               151.1140               136.4808

                     16                     17                     18
                      A                      A                      A
 Frequencies --    643.5491               660.6900               736.4886
 Red. masses --      6.9155                 7.0874                 3.1043
 Frc consts  --      1.6875                 1.8228                 0.9921
 IR Inten    --      0.6382               143.5300                17.9033

                     19                     20                     21
                      A                      A                      A
 Frequencies --    823.4554               843.2531               867.3955
 Red. masses --      5.1562                 1.4414                 1.2490
 Frc consts  --      2.0600                 0.6039                 0.5537
 IR Inten    --      2.4463                60.6180                 0.0253

                     22                     23                     24
                      A                      A                      A
 Frequencies --    955.3278               989.6820              1009.1256
 Red. masses --     12.9897                 1.3219                 1.3703
 Frc consts  --      6.9848                 0.7628                 0.8222
 IR Inten    --    385.5890                 0.5310                 0.0589

                     25                     26                     27
                      A                      A                      A
 Frequencies --   1019.5958              1035.8182              1063.1112
 Red. masses --      1.4351                 3.0682                 5.6768
 Frc consts  --      0.8790                 1.9395                 3.7801
 IR Inten    --      6.7312                35.5297               692.5165

                     28                     29                     30
                      A                      A                      A
 Frequencies --   1072.3118              1110.1720              1134.7176
 Red. masses --      1.5629                 2.4542                 1.2708
 Frc consts  --      1.0588                 1.7821                 0.9641
 IR Inten    --     10.5842               311.0856                26.2448

                     31                     32                     33
                      A                      A                      A
 Frequencies --   1140.4361              1182.6573              1200.5306
 Red. masses --      3.2011                 2.4726                 1.1785
 Frc consts  --      2.4530                 2.0376                 1.0008
 IR Inten    --    104.9501               386.2378                 7.9002

                     34                     35                     36
                      A                      A                      A
 Frequencies --   1250.7402              1326.4029              1337.1812
 Red. masses --      2.7518                 1.3548                 5.9156
 Frc consts  --      2.5363                 1.4043                 6.2321
 IR Inten    --      1.9555                 2.6588                 1.5615

                     37                     38                     39
                      A                      A                      A
 Frequencies --   1425.8458              1440.7416              1489.4860
 Red. masses --      1.2859                 2.5928                 1.0460
 Frc consts  --      1.5403                 3.1709                 1.3673
 IR Inten    --      0.6590                 6.4125                13.8748

                     40                     41                     42
                      A                      A                      A
 Frequencies --   1496.4138              1547.2484              1654.1152
 Red. masses --      1.1263                 2.6168                 6.7510
 Frc consts  --      1.4859                 3.6910                10.8831
 IR Inten    --     27.2209                22.2440                 1.6732

                     43                     44                     45
                      A                      A                      A
 Frequencies --   1681.1603              3082.4259              3145.0209
 Red. masses --      6.4113                 1.0373                 1.1014
 Frc consts  --     10.6762                 5.8068                 6.4185
 IR Inten    --     20.0101                29.3737                16.3955

                     46                     47                     48
                      A                      A                      A
 Frequencies --   3170.8915              3214.1920              3220.0979
 Red. masses --      1.1030                 1.0892                 1.0905
 Frc consts  --      6.5341                 6.6298                 6.6622
 IR Inten    --     24.1761                10.3893                14.0505

                     49                     50                     51
                      A                      A                      A
 Frequencies --   3230.8441              3246.2557              3499.2425
 Red. masses --      1.0947                 1.0933                 1.0733
 Frc consts  --      6.7325                 6.7880                 7.7432
 IR Inten    --      6.9756                 3.6582                34.3284

 - Thermochemistry -
 -------------------
 Temperature   298.150 Kelvin.  Pressure   1.00000 Atm.
 Atom     1 has atomic number  6 and mass  12.00000

 Molecular mass:   170.02758 amu.
 Principal axes and moments of inertia in atomic units:
                           1         2         3
     Eigenvalues --   690.224393216.161593529.99647
           X            0.99999  -0.00330   0.00364
           Y            0.00337   0.99979  -0.02009
           Z           -0.00357   0.02010   0.99979
 This molecule is an asymmetric top.
 Rotational symmetry number  1.
 Warning -- assumption of classical behavior for rotation
           may cause significant error
 Rotational temperatures (Kelvin)      0.12549     0.02693     0.02454
 Rotational constants (GHZ):           2.61472     0.56115     0.51126
 Zero-point vibrational energy     375220.4 (Joules/Mol)
                                   89.67983 (Kcal/Mol)
 Warning -- explicit consideration of  15 degrees of freedom as
           vibrations may cause significant error
 Vibrational temperatures:     45.20    70.66   133.24   246.48   304.65
          (Kelvin)            407.65   421.08   495.66   539.41   594.48
                              638.85   698.72   705.93   779.75   803.28
                              925.92   950.59  1059.64  1184.77  1213.25
                             1247.99  1374.50  1423.93  1451.91  1466.97
                             1490.31  1529.58  1542.82  1597.29  1632.61
                             1640.83  1701.58  1727.30  1799.54  1908.40
                             1923.91  2051.47  2072.91  2143.04  2153.01
                             2226.15  2379.90  2418.81  4434.92  4524.98
                             4562.21  4624.51  4633.00  4648.46  4670.64
                             5034.63

 Zero-point correction=                           0.142914 (Hartree/Particle)
 Thermal correction to Energy=                    0.153313
 Thermal correction to Enthalpy=                  0.154257
 Thermal correction to Gibbs Free Energy=         0.105629
 Sum of electronic and zero-point Energies=           -874.675895
 Sum of electronic and thermal Energies=              -874.665496
 Sum of electronic and thermal Enthalpies=            -874.664552
 Sum of electronic and thermal Free Energies=         -874.713180

                     E (Thermal)             CV                S
                      KCal/Mol        Cal/Mol-Kelvin    Cal/Mol-Kelvin
 Total                   96.205             38.696            102.347
 Electronic               0.000              0.000              0.000
 Translational            0.889              2.981             41.300
 Rotational               0.889              2.981             30.439
 Vibrational             94.428             32.734             30.608
 Vibration     1          0.594              1.983              5.738
 Vibration     2          0.595              1.978              4.853
 Vibration     3          0.602              1.954              3.604
 Vibration     4          0.626              1.878              2.421
 Vibration     5          0.643              1.823              2.029
 Vibration     6          0.682              1.705              1.513
 Vibration     7          0.688              1.687              1.458
 Vibration     8          0.723              1.586              1.191
 Vibration     9          0.746              1.524              1.060
 Vibration    10          0.777              1.442              0.915
 Vibration    11          0.804              1.374              0.814
 Vibration    12          0.842              1.282              0.695
 Vibration    13          0.846              1.271              0.682
 Vibration    14          0.897              1.157              0.561
 Vibration    15          0.914              1.122              0.527

 Optimization completed.
    -- Stationary point found.
 Normal termination of Gaussian 16 at Thu May 19 14:57:05 2022.
