 Gaussian 16, Revision C.01,
 Gaussian 16:  ES64L-G16RevC.01  3-Jul-2019

 -----------------------------------------------------
 #m062X/gen 6D OPT Freq=noraman SCRF=(SMD,Solvent=h2o)
 -----------------------------------------------------

 -----
 a1 b1
 -----
 Symbolic Z-matrix:
 Charge = -1 Multiplicity = 1

 SCF Done:  E(RM062X) =  -934.734169018     A.U. after   16 cycles
 Optimization completed.
    -- Stationary point found.
 Normal termination of Gaussian 16 at Thu May 19 14:59:51 2022.

 ------------------------------------------------------------------
 #N Geom=AllCheck Guess=TCheck SCRF=Check GenChk RM062X/ChkBas Freq
 ------------------------------------------------------------------

 Structure from the checkpoint file:  "/jobfs/40645255.gadi-pbs/Gau-1110712.chk"
 -----
 a1 b1
 -----
 Charge = -1 Multiplicity = 1

                         Standard orientation:
 ---------------------------------------------------------------------
 Center     Atomic      Atomic             Coordinates (Angstroms)
 Number     Number       Type             X           Y           Z
 ---------------------------------------------------------------------
      1          6           0        0.113463    0.017193   -0.057868
      2          6           0       -0.581720    1.223798   -0.015607
      3          1           0       -0.042253    2.165422   -0.016641
      4          6           0       -1.975579    1.219938    0.019140
      5          1           0       -2.548051    2.141389    0.045203
      6          6           0       -2.625808   -0.003175    0.016592
      7          6           0       -1.958390   -1.218570   -0.021243
      8          1           0       -2.518522   -2.147899   -0.024627
      9          6           0       -0.566856   -1.201416   -0.057257
     10          1           0       -0.018088   -2.138415   -0.090299
     11         16           0        1.913773    0.011204   -0.009669
     12          8           0        2.286392   -1.057506   -0.987613
     13          8           0        2.315431    1.379562   -0.432995
     14          7           0        2.407965   -0.237156    1.453133
     15          1           0        2.217624   -1.215910    1.686132
     16          9           0       -3.979120   -0.014091    0.049481
 ---------------------------------------------------------------------

 SCF Done:  E(RM062X) =  -934.734169018     A.U. after    1 cycles

 The electronic state is 1-A.
 Alpha  occ. eigenvalues --  -90.13447 -25.28534 -19.62022 -19.61902 -14.71778
 Alpha  occ. eigenvalues --  -10.64722 -10.57878 -10.57245 -10.57137 -10.56672
 Alpha  occ. eigenvalues --  -10.56625  -8.44336  -6.36581  -6.36485  -6.36404
 Alpha  occ. eigenvalues --   -1.37766  -1.20707  -1.09129  -0.98205  -0.95837
 Alpha  occ. eigenvalues --   -0.86382  -0.86345  -0.73539  -0.71908  -0.66765
 Alpha  occ. eigenvalues --   -0.63394  -0.59462  -0.58324  -0.57203  -0.55287
 Alpha  occ. eigenvalues --   -0.52684  -0.52237  -0.50545  -0.48715  -0.47968
 Alpha  occ. eigenvalues --   -0.45067  -0.42042  -0.41452  -0.39388  -0.37382
 Alpha  occ. eigenvalues --   -0.36111  -0.33230  -0.32356  -0.32142  -0.28450
 Alpha virt. eigenvalues --    0.00630   0.00965   0.02045   0.03452   0.04234
 Alpha virt. eigenvalues --    0.04807   0.05169   0.05913   0.06725   0.08302
 Alpha virt. eigenvalues --    0.08531   0.08620   0.09753   0.10560   0.11826

 Mulliken charges:
               1
     1  C   -0.826965
     2  C   -0.582477
     3  H    0.272845
     4  C   -0.032877
     5  H    0.275417
     6  C    0.144896
     7  C   -0.002006
     8  H    0.275850
     9  C    0.262047
    10  H    0.271096
    11  S    1.391140
    12  O   -0.735050
    13  O   -0.799551
    14  N   -0.967549
    15  H    0.403443
    16  F   -0.350257
 Sum of Mulliken charges =  -1.00000

 Dipole moment (field-independent basis, Debye):
    X=            -13.0048    Y=             -2.0918    Z=              0.8169  Tot=             13.1973
 Quadrupole moment (field-independent basis, Debye-Ang):
   XX=           -116.4875   YY=            -70.1693   ZZ=            -84.1451
   XY=             -4.6811   XZ=              0.9161   YZ=             -3.9813

  Exact polarizability:     180.909      -1.710     159.329       3.896       1.044     107.197
 Approx polarizability:     150.138      -0.715     142.938       2.144       1.117      95.734

                      1                      2                      3
                      A                      A                      A
 Frequencies --     25.5392                94.4415               174.5036
 Red. masses --      5.1191                 9.4158                 8.0102
 Frc consts  --      0.0020                 0.0495                 0.1437
 IR Inten    --      0.4329                 7.3287                12.6191

                      4                      5                      6
                      A                      A                      A
 Frequencies --    223.7050               281.4680               303.5870
 Red. masses --      5.4608                11.0900                 2.8735
 Frc consts  --      0.1610                 0.5177                 0.1560
 IR Inten    --      5.6626                 2.2105                67.9618

                      7                      8                      9
                      A                      A                      A
 Frequencies --    375.4965               410.1949               421.9983
 Red. masses --      6.5928                 4.0931                 3.1296
 Frc consts  --      0.5477                 0.4058                 0.3284
 IR Inten    --     12.0523                28.9223                 1.4621

                     10                     11                     12
                      A                      A                      A
 Frequencies --    456.9802               492.8924               496.4314
 Red. masses --      2.5408                 3.5109                 5.8348
 Frc consts  --      0.3126                 0.5025                 0.8472
 IR Inten    --     97.4971               115.7795                21.0457

                     13                     14                     15
                      A                      A                      A
 Frequencies --    543.4475               558.8162               637.7959
 Red. masses --      4.8959                 4.9972                 7.2207
 Frc consts  --      0.8519                 0.9194                 1.7306
 IR Inten    --    180.0935               163.6015                 0.2294

                     16                     17                     18
                      A                      A                      A
 Frequencies --    662.9912               733.3676               844.4822
 Red. masses --      9.5415                 3.9465                 6.7775
 Frc consts  --      2.4711                 1.2506                 2.8478
 IR Inten    --     71.0084                12.6297                43.7570

                     19                     20                     21
                      A                      A                      A
 Frequencies --    845.3230               863.2899               958.7266
 Red. masses --      1.2465                 1.6229                13.1295
 Frc consts  --      0.5248                 0.7126                 7.1103
 IR Inten    --      0.3147               104.8986               403.5987

                     22                     23                     24
                      A                      A                      A
 Frequencies --    983.0127              1001.9685              1033.7430
 Red. masses --      1.3507                 1.3544                 2.7613
 Frc consts  --      0.7690                 0.8011                 1.7385
 IR Inten    --      2.4003                 0.0053                17.5386

                     25                     26                     27
                      A                      A                      A
 Frequencies --   1066.1080              1114.5996              1118.0143
 Red. masses --      5.1780                 2.4104                 1.2376
 Frc consts  --      3.4675                 1.7643                 0.9114
 IR Inten    --    693.9928               308.8251                12.9445

                     28                     29                     30
                      A                      A                      A
 Frequencies --   1138.3006              1173.9060              1186.6277
 Red. masses --      3.5198                 1.1640                 2.6392
 Frc consts  --      2.6871                 0.9451                 2.1895
 IR Inten    --    110.8530                37.7688               380.2180

                     31                     32                     33
                      A                      A                      A
 Frequencies --   1263.5880              1311.6323              1340.4879
 Red. masses --      4.1109                 1.2524                10.8865
 Frc consts  --      3.8672                 1.2694                11.5256
 IR Inten    --    212.8259                 4.9267                 0.1887

                     34                     35                     36
                      A                      A                      A
 Frequencies --   1446.8778              1543.5592              1673.2505
 Red. masses --      3.5767                 2.7010                 6.6703
 Frc consts  --      4.4116                 3.7916                11.0031
 IR Inten    --      8.2996               145.2816                87.3753

                     37                     38                     39
                      A                      A                      A
 Frequencies --   1680.6997              3236.4225              3249.0721
 Red. masses --      7.8673                 1.0906                 1.0896
 Frc consts  --     13.0935                 6.7307                 6.7772
 IR Inten    --     26.5235                 0.3242                 0.1268

                     40                     41                     42
                      A                      A                      A
 Frequencies --   3256.4600              3259.1817              3501.6580
 Red. masses --      1.0956                 1.0964                 1.0733
 Frc consts  --      6.8454                 6.8617                 7.7542
 IR Inten    --      1.5963                 3.5199                36.3289

 - Thermochemistry -
 -------------------
 Temperature   298.150 Kelvin.  Pressure   1.00000 Atm.
 Atom     1 has atomic number  6 and mass  12.00000

 Molecular mass:   174.00250 amu.
 Principal axes and moments of inertia in atomic units:
                           1         2         3
     Eigenvalues --   683.266973289.583223607.71191
           X            0.99998  -0.00378   0.00475
           Y            0.00387   0.99980  -0.01964
           Z           -0.00468   0.01966   0.99980
 This molecule is an asymmetric top.
 Rotational symmetry number  1.
 Warning -- assumption of classical behavior for rotation
           may cause significant error
 Rotational temperatures (Kelvin)      0.12676     0.02633     0.02401
 Rotational constants (GHZ):           2.64134     0.54862     0.50025
 Zero-point vibrational energy     281030.6 (Joules/Mol)
                                   67.16793 (Kcal/Mol)
 Warning -- explicit consideration of  14 degrees of freedom as
           vibrations may cause significant error
 Vibrational temperatures:     36.75   135.88   251.07   321.86   404.97
          (Kelvin)            436.79   540.26   590.18   607.16   657.49
                              709.16   714.25   781.90   804.01   917.65
                              953.90  1055.15  1215.02  1216.23  1242.08
                             1379.39  1414.34  1441.61  1487.33  1533.89
                             1603.66  1608.57  1637.76  1688.99  1707.29
                             1818.02  1887.15  1928.66  2081.73  2220.84
                             2407.43  2418.15  4656.49  4674.69  4685.32
                             4689.24  5038.10

 Zero-point correction=                           0.107039 (Hartree/Particle)
 Thermal correction to Energy=                    0.116400
 Thermal correction to Enthalpy=                  0.117344
 Thermal correction to Gibbs Free Energy=         0.071153
 Sum of electronic and zero-point Energies=           -934.627130
 Sum of electronic and thermal Energies=              -934.617769
 Sum of electronic and thermal Enthalpies=            -934.616825
 Sum of electronic and thermal Free Energies=         -934.663016

                     E (Thermal)             CV                S
                      KCal/Mol        Cal/Mol-Kelvin    Cal/Mol-Kelvin
 Total                   73.042             35.561             97.218
 Electronic               0.000              0.000              0.000
 Translational            0.889              2.981             41.369
 Rotational               0.889              2.981             30.473
 Vibrational             71.265             29.599             25.375
 Vibration     1          0.593              1.985              6.149
 Vibration     2          0.603              1.953              3.566
 Vibration     3          0.627              1.874              2.386
 Vibration     4          0.649              1.805              1.929
 Vibration     5          0.681              1.708              1.525
 Vibration     6          0.695              1.667              1.397
 Vibration     7          0.746              1.522              1.057
 Vibration     8          0.774              1.448              0.926
 Vibration     9          0.784              1.422              0.885
 Vibration    10          0.815              1.345              0.775
 Vibration    11          0.849              1.266              0.676
 Vibration    12          0.852              1.258              0.667
 Vibration    13          0.899              1.154              0.558
 Vibration    14          0.914              1.120              0.526

 Optimization completed.
    -- Stationary point found.
 Normal termination of Gaussian 16 at Thu May 19 15:02:19 2022.
