 Gaussian 16, Revision C.01,
 Gaussian 16:  ES64L-G16RevC.01  3-Jul-2019

 -----------------------------------------------------
 #m062X/gen 6D OPT Freq=noraman SCRF=(SMD,Solvent=h2o)
 -----------------------------------------------------

 -----
 a1 b1
 -----
 Symbolic Z-matrix:
 Charge = -1 Multiplicity = 1

 SCF Done:  E(RM062X) =  -1033.93663162     A.U. after   15 cycles
 Optimization completed.
    -- Stationary point found.
 Normal termination of Gaussian 16 at Thu May 19 15:05:14 2022.

 ------------------------------------------------------------------
 #N Geom=AllCheck Guess=TCheck SCRF=Check GenChk RM062X/ChkBas Freq
 ------------------------------------------------------------------

 Structure from the checkpoint file:  "/jobfs/40645527.gadi-pbs/Gau-1050984.chk"
 -----
 a1 b1
 -----
 Charge = -1 Multiplicity = 1

                         Standard orientation:
 ---------------------------------------------------------------------
 Center     Atomic      Atomic             Coordinates (Angstroms)
 Number     Number       Type             X           Y           Z
 ---------------------------------------------------------------------
      1          6           0        0.209585    0.054447    0.002983
      2          6           0        1.050634    1.164946   -0.013783
      3          9           0        0.532032    2.406706   -0.010516
      4          6           0        2.435659    1.061402   -0.028888
      5          1           0        3.031157    1.968099   -0.040573
      6          6           0        3.018339   -0.201337   -0.025347
      7          6           0        2.223797   -1.347273   -0.006793
      8          1           0        2.646690   -2.346092   -0.003275
      9          6           0        0.852087   -1.184147    0.007641
     10          9           0        0.077739   -2.291864    0.020408
     11         16           0       -1.610804    0.076185    0.010149
     12          8           0       -1.922092   -0.550298    1.326889
     13          8           0       -1.985003    1.504494   -0.082178
     14          7           0       -2.137813   -0.687321   -1.238013
     15          1           0       -2.011180   -1.689151   -1.077459
     16          1           0        4.099094   -0.295949   -0.036592
 ---------------------------------------------------------------------

 SCF Done:  E(RM062X) =  -1033.93663162     A.U. after    1 cycles

 The electronic state is 1-A.
 Alpha  occ. eigenvalues --  -90.14538 -25.29320 -25.28744 -19.62376 -19.62328
 Alpha  occ. eigenvalues --  -14.72196 -10.66025 -10.65885 -10.58991 -10.57413
 Alpha  occ. eigenvalues --  -10.56610 -10.56538  -8.45287  -6.37524  -6.37456
 Alpha  occ. eigenvalues --   -6.37377  -1.38724  -1.38306  -1.21457  -1.09753
 Alpha  occ. eigenvalues --   -0.98945  -0.96625  -0.87606  -0.86305  -0.74727
 Alpha  occ. eigenvalues --   -0.72744  -0.69023  -0.65233  -0.61982  -0.59837
 Alpha  occ. eigenvalues --   -0.58475  -0.57351  -0.57299  -0.55930  -0.54480
 Alpha  occ. eigenvalues --   -0.54069  -0.52386  -0.47532  -0.45575  -0.45021
 Alpha  occ. eigenvalues --   -0.44320  -0.42265  -0.39862  -0.37846  -0.36504
 Alpha  occ. eigenvalues --   -0.33640  -0.32996  -0.31156  -0.29523
 Alpha virt. eigenvalues --    0.00092   0.01808   0.01943   0.03664   0.03750
 Alpha virt. eigenvalues --    0.04531   0.04625   0.05593   0.06690   0.08219
 Alpha virt. eigenvalues --    0.08370   0.08437   0.09177   0.09681   0.11920

 Mulliken charges:
               1
     1  C   -0.854781
     2  C    0.085468
     3  F   -0.330432
     4  C   -0.042513
     5  H    0.275377
     6  C   -0.277976
     7  C   -0.032825
     8  H    0.278368
     9  C    0.597515
    10  F   -0.354600
    11  S    1.425915
    12  O   -0.706853
    13  O   -0.774579
    14  N   -0.967815
    15  H    0.409753
    16  H    0.269979
 Sum of Mulliken charges =  -1.00000

 Dipole moment (field-independent basis, Debye):
    X=             14.8004    Y=             -2.8829    Z=             -0.2643  Tot=             15.0809
 Quadrupole moment (field-independent basis, Debye-Ang):
   XX=            -90.2957   YY=            -83.8847   ZZ=            -89.7178
   XY=              3.5667   XZ=             -0.7862   YZ=              2.3758

  Exact polarizability:     183.465       2.237     157.249       3.677       1.214     105.674
 Approx polarizability:     149.034       1.940     147.033       2.470       0.507      95.809

                      1                      2                      3
                      A                      A                      A
 Frequencies --     31.5448                85.6820               169.0831
 Red. masses --     10.0509                 7.9246                10.9909
 Frc consts  --      0.0059                 0.0343                 0.1851
 IR Inten    --      1.1015                 0.0180                 1.4468

                      4                      5                      6
                      A                      A                      A
 Frequencies --    198.6527               243.8325               246.3753
 Red. masses --     10.9236                 4.8183                 6.5083
 Frc consts  --      0.2540                 0.1688                 0.2328
 IR Inten    --      1.4390                 0.2839                 8.6734

                      7                      8                      9
                      A                      A                      A
 Frequencies --    265.2779               360.1677               378.8230
 Red. masses --      8.4571                 7.1359                13.0973
 Frc consts  --      0.3506                 0.5454                 1.1074
 IR Inten    --     12.6839                 1.4583                11.9373

                     10                     11                     12
                      A                      A                      A
 Frequencies --    411.8609               486.7738               502.8733
 Red. masses --      2.2989                 7.8229                 2.0145
 Frc consts  --      0.2298                 1.0921                 0.3001
 IR Inten    --    127.4099                29.3968               194.4964

                     13                     14                     15
                      A                      A                      A
 Frequencies --    519.2157               536.9800               557.9286
 Red. masses --      7.3337                 9.8485                 5.0696
 Frc consts  --      1.1648                 1.6732                 0.9298
 IR Inten    --     17.4910               169.6861                22.7659

                     16                     17                     18
                      A                      A                      A
 Frequencies --    564.7358               608.6959               627.2258
 Red. masses --      6.1229                 4.8801                12.1564
 Frc consts  --      1.1505                 1.0653                 2.8178
 IR Inten    --     20.4002                 0.4872               138.3470

                     19                     20                     21
                      A                      A                      A
 Frequencies --    744.9751               777.2202               816.7070
 Red. masses --      2.2756                 7.6812                 1.9789
 Frc consts  --      0.7441                 2.7338                 0.7777
 IR Inten    --     12.6122                33.4040               139.2400

                     22                     23                     24
                      A                      A                      A
 Frequencies --    918.5320               964.5566              1012.0380
 Red. masses --      1.4092                14.1091                 1.3127
 Frc consts  --      0.7005                 7.7340                 0.7921
 IR Inten    --      0.0261               336.8701                 1.3425

                     25                     26                     27
                      A                      A                      A
 Frequencies --   1027.1267              1079.9964              1085.2807
 Red. masses --      5.1990                 3.7252                 3.5405
 Frc consts  --      3.2316                 2.5600                 2.4570
 IR Inten    --    166.7108               294.0464               457.7904

                     28                     29                     30
                      A                      A                      A
 Frequencies --   1129.2514              1135.4396              1170.7482
 Red. masses --      2.2060                 2.0738                 1.1597
 Frc consts  --      1.6575                 1.5753                 0.9366
 IR Inten    --    265.1705                98.3366                 0.9780

                     31                     32                     33
                      A                      A                      A
 Frequencies --   1203.9999              1267.9594              1313.9506
 Red. masses --      3.3654                 1.8734                 6.5598
 Frc consts  --      2.8744                 1.7746                 6.6727
 IR Inten    --    352.6125               156.0198                63.0478

                     34                     35                     36
                      A                      A                      A
 Frequencies --   1341.6520              1497.2602              1513.6543
 Red. masses --      7.6374                 3.8612                 3.2101
 Frc consts  --      8.0998                 5.1000                 4.3334
 IR Inten    --     18.5714                36.2056               286.2465

                     37                     38                     39
                      A                      A                      A
 Frequencies --   1662.0084              1693.5584              3248.8361
 Red. masses --      7.6786                 8.2592                 1.0891
 Frc consts  --     12.4968                13.9569                 6.7729
 IR Inten    --    183.4024               144.0151                 3.5072

                     40                     41                     42
                      A                      A                      A
 Frequencies --   3258.4065              3264.2726              3520.6772
 Red. masses --      1.0937                 1.0987                 1.0734
 Frc consts  --      6.8417                 6.8978                 7.8393
 IR Inten    --      0.0264                 0.2240                49.1350

 - Thermochemistry -
 -------------------
 Temperature   298.150 Kelvin.  Pressure   1.00000 Atm.
 Atom     1 has atomic number  6 and mass  12.00000

 Molecular mass:   191.99308 amu.
 Principal axes and moments of inertia in atomic units:
                           1         2         3
     Eigenvalues --  1392.449432231.561943260.37434
           X            0.99999   0.00300   0.00347
           Y           -0.00302   0.99998   0.00634
           Z           -0.00345  -0.00635   0.99997
 This molecule is an asymmetric top.
 Rotational symmetry number  1.
 Warning -- assumption of classical behavior for rotation
           may cause significant error
 Rotational temperatures (Kelvin)      0.06220     0.03881     0.02657
 Rotational constants (GHZ):           1.29609     0.80873     0.55354
 Zero-point vibrational energy     259851.8 (Joules/Mol)
                                   62.10608 (Kcal/Mol)
 Warning -- explicit consideration of  17 degrees of freedom as
           vibrations may cause significant error
 Vibrational temperatures:     45.39   123.28   243.27   285.82   350.82
          (Kelvin)            354.48   381.68   518.20   545.04   592.58
                              700.36   723.52   747.04   772.59   802.73
                              812.53   875.78   902.44  1071.85  1118.25
                             1175.06  1321.56  1387.78  1456.10  1477.81
                             1553.87  1561.48  1624.74  1633.64  1684.45
                             1732.29  1824.31  1890.48  1930.34  2154.22
                             2177.81  2391.26  2436.65  4674.35  4688.12
                             4696.56  5065.47

 Zero-point correction=                           0.098972 (Hartree/Particle)
 Thermal correction to Energy=                    0.109172
 Thermal correction to Enthalpy=                  0.110116
 Thermal correction to Gibbs Free Energy=         0.062309
 Sum of electronic and zero-point Energies=          -1033.837659
 Sum of electronic and thermal Energies=             -1033.827460
 Sum of electronic and thermal Enthalpies=           -1033.826516
 Sum of electronic and thermal Free Energies=        -1033.874323

                     E (Thermal)             CV                S
                      KCal/Mol        Cal/Mol-Kelvin    Cal/Mol-Kelvin
 Total                   68.506             38.385            100.619
 Electronic               0.000              0.000              0.000
 Translational            0.889              2.981             41.662
 Rotational               0.889              2.981             30.694
 Vibrational             66.729             32.424             28.262
 Vibration     1          0.594              1.983              5.730
 Vibration     2          0.601              1.959              3.756
 Vibration     3          0.625              1.881              2.446
 Vibration     4          0.637              1.842              2.146
 Vibration     5          0.659              1.773              1.775
 Vibration     6          0.661              1.769              1.756
 Vibration     7          0.671              1.737              1.627
 Vibration     8          0.735              1.554              1.121
 Vibration     9          0.749              1.515              1.044
 Vibration    10          0.776              1.444              0.920
 Vibration    11          0.843              1.279              0.692
 Vibration    12          0.858              1.244              0.651
 Vibration    13          0.874              1.207              0.612
 Vibration    14          0.892              1.168              0.572
 Vibration    15          0.913              1.122              0.528
 Vibration    16          0.921              1.108              0.514
 Vibration    17          0.968              1.013              0.435

 Optimization completed.
    -- Stationary point found.
 Normal termination of Gaussian 16 at Thu May 19 15:08:09 2022.
