 Gaussian 16, Revision C.01,
 Gaussian 16:  ES64L-G16RevC.01  3-Jul-2019

 -----------------------------------------------------
 #m062X/gen 6D OPT Freq=noraman SCRF=(SMD,Solvent=h2o)
 -----------------------------------------------------

 -----
 a3 b2
 -----
 Symbolic Z-matrix:
 Charge = -1 Multiplicity = 1

 SCF Done:  E(RM062X) =  -1331.52701372     A.U. after   15 cycles
 SCF Done:  E(RM062X) =  -1331.53223245     A.U. after   14 cycles
 SCF Done:  E(RM062X) =  -1331.53340165     A.U. after   14 cycles
 SCF Done:  E(RM062X) =  -1331.53448381     A.U. after   13 cycles
 SCF Done:  E(RM062X) =  -1331.53504080     A.U. after   14 cycles
 SCF Done:  E(RM062X) =  -1331.53524308     A.U. after   14 cycles
 SCF Done:  E(RM062X) =  -1331.53530176     A.U. after   13 cycles
 SCF Done:  E(RM062X) =  -1331.53532361     A.U. after   12 cycles
 SCF Done:  E(RM062X) =  -1331.53532648     A.U. after   12 cycles
 SCF Done:  E(RM062X) =  -1331.53532724     A.U. after   10 cycles
 SCF Done:  E(RM062X) =  -1331.53532713     A.U. after   10 cycles
 SCF Done:  E(RM062X) =  -1331.53532695     A.U. after   10 cycles
 SCF Done:  E(RM062X) =  -1331.53532681     A.U. after    9 cycles
 Optimization completed.
    -- Stationary point found.
 Normal termination of Gaussian 16 at Thu May 19 15:17:31 2022.

 ------------------------------------------------------------------
 #N Geom=AllCheck Guess=TCheck SCRF=Check GenChk RM062X/ChkBas Freq
 ------------------------------------------------------------------

 Structure from the checkpoint file:  "/jobfs/40645836.gadi-pbs/Gau-1051899.chk"
 -----
 a3 b2
 -----
 Charge = -1 Multiplicity = 1

                         Standard orientation:
 ---------------------------------------------------------------------
 Center     Atomic      Atomic             Coordinates (Angstroms)
 Number     Number       Type             X           Y           Z
 ---------------------------------------------------------------------
      1          6           0       -0.476858    0.086512   -0.012726
      2          6           0        0.313388    1.229842    0.001221
      3          9           0       -0.203182    2.461166   -0.001028
      4          6           0        1.701962    1.151500    0.012477
      5          9           0        2.433704    2.267540    0.023577
      6          6           0        2.330518   -0.081208    0.009650
      7          6           0        1.566239   -1.238861   -0.002695
      8          9           0        2.161817   -2.432303   -0.003341
      9          6           0        0.186867   -1.137420   -0.013249
     10          9           0       -0.515583   -2.278073   -0.014125
     11         16           0       -2.310457    0.053165   -0.007899
     12          8           0       -2.699589    1.476894    0.026786
     13          8           0       -2.593980   -0.638217   -1.293149
     14          7           0       -2.794264   -0.670632    1.274499
     15          1           0       -2.677285   -1.677966    1.142082
     16          9           0        3.658833   -0.157205    0.019989
 ---------------------------------------------------------------------

 SCF Done:  E(RM062X) =  -1331.53532681     A.U. after    1 cycles

 The electronic state is 1-A.
 Alpha  occ. eigenvalues --  -90.15271 -25.31871 -25.31491 -25.31380 -25.31148
 Alpha  occ. eigenvalues --  -25.30588 -19.62979 -19.62933 -14.72810 -10.68290
 Alpha  occ. eigenvalues --  -10.68087 -10.67931 -10.67613 -10.67521 -10.60657
 Alpha  occ. eigenvalues --   -8.45992  -6.38222  -6.38175  -6.38079  -1.42366
 Alpha  occ. eigenvalues --   -1.41525  -1.40923  -1.40038  -1.39670  -1.22230
 Alpha  occ. eigenvalues --   -1.10531  -1.02111  -0.97462  -0.90169  -0.89190
 Alpha  occ. eigenvalues --   -0.78594  -0.76958  -0.71392  -0.69401  -0.69394
 Alpha  occ. eigenvalues --   -0.66867  -0.64132  -0.63973  -0.63084  -0.61618
 Alpha  occ. eigenvalues --   -0.60553  -0.59543  -0.59393  -0.57827  -0.57477
 Alpha  occ. eigenvalues --   -0.56320  -0.55497  -0.55185  -0.53177  -0.51044
 Alpha  occ. eigenvalues --   -0.50788  -0.47635  -0.44621  -0.42920  -0.40377
 Alpha  occ. eigenvalues --   -0.38541  -0.37215  -0.34283  -0.33662  -0.31979
 Alpha  occ. eigenvalues --   -0.30295
 Alpha virt. eigenvalues --   -0.00949  -0.00506   0.01357   0.02548   0.02702
 Alpha virt. eigenvalues --    0.04354   0.04446   0.05257   0.06406   0.07193
 Alpha virt. eigenvalues --    0.07713   0.07838   0.08051   0.09025   0.10797

 Mulliken charges:
               1
     1  C   -0.788065
     2  C   -0.237948
     3  F   -0.320991
     4  C    0.509772
     5  F   -0.330683
     6  C    0.514624
     7  C    0.496859
     8  F   -0.330250
     9  C    0.676346
    10  F   -0.340520
    11  S    1.439664
    12  O   -0.760625
    13  O   -0.681311
    14  N   -0.933253
    15  H    0.414960
    16  F   -0.328579
 Sum of Mulliken charges =  -1.00000

 Dipole moment (field-independent basis, Debye):
    X=             13.0062    Y=             -2.3726    Z=              0.2943  Tot=             13.2241
 Quadrupole moment (field-independent basis, Debye-Ang):
   XX=           -138.7914   YY=           -104.1869   ZZ=            -98.9088
   XY=              6.0240   XZ=              0.1660   YZ=             -2.6905

  Exact polarizability:     180.087       3.095     154.445      -4.289      -1.495     102.673
 Approx polarizability:     153.199       2.173     151.258      -2.962      -0.729      95.555

                      1                      2                      3
                      A                      A                      A
 Frequencies --     13.1089                70.1211               134.0828
 Red. masses --     10.6938                14.0735                18.3694
 Frc consts  --      0.0011                 0.0408                 0.1946
 IR Inten    --      1.8861                 3.6895                 0.0765

                      4                      5                      6
                      A                      A                      A
 Frequencies --    145.7879               162.3297               197.9099
 Red. masses --     12.5061                16.6712                15.3706
 Frc consts  --      0.1566                 0.2588                 0.3547
 IR Inten    --      5.7255                 1.7974                 4.7275

                      7                      8                      9
                      A                      A                      A
 Frequencies --    235.0868               256.0738               263.3410
 Red. masses --     11.1202                 7.4547                16.5486
 Frc consts  --      0.3621                 0.2880                 0.6762
 IR Inten    --      1.4122                12.8095                 1.0636

                     10                     11                     12
                      A                      A                      A
 Frequencies --    268.7560               277.2806               320.0114
 Red. masses --     11.3348                18.1093                11.5317
 Frc consts  --      0.4824                 0.8203                 0.6958
 IR Inten    --      4.1792                 1.3548                10.8891

                     13                     14                     15
                      A                      A                      A
 Frequencies --    353.3839               387.0895               410.6182
 Red. masses --     16.3572                12.6253                11.7672
 Frc consts  --      1.2035                 1.1146                 1.1690
 IR Inten    --      1.9566                 0.0566                 3.4028

                     16                     17                     18
                      A                      A                      A
 Frequencies --    426.7922               450.7307               494.3173
 Red. masses --      2.5769                12.1509                15.6366
 Frc consts  --      0.2766                 1.4544                 2.2511
 IR Inten    --    120.4917                 4.8395                29.4203

                     19                     20                     21
                      A                      A                      A
 Frequencies --    501.4441               508.8107               582.6942
 Red. masses --      2.1122                 7.8665                15.7061
 Frc consts  --      0.3129                 1.1999                 3.1420
 IR Inten    --    164.3197                61.1470               278.7854

                     22                     23                     24
                      A                      A                      A
 Frequencies --    594.1133               653.8465               674.5293
 Red. masses --     17.0538                12.2449                12.1811
 Frc consts  --      3.5466                 3.0843                 3.2654
 IR Inten    --     89.8746                 9.3590                 0.0484

                     25                     26                     27
                      A                      A                      A
 Frequencies --    719.8367               772.0124               848.5274
 Red. masses --     12.1254                12.0842                13.9024
 Frc consts  --      3.7018                 4.2434                 5.8976
 IR Inten    --     22.1741                 3.4860                 7.4531

                     28                     29                     30
                      A                      A                      A
 Frequencies --    975.5388              1015.2396              1086.3474
 Red. masses --     14.6109                13.6220                 2.5303
 Frc consts  --      8.1925                 8.2723                 1.7594
 IR Inten    --    329.0044               357.5375               611.9840

                     31                     32                     33
                      A                      A                      A
 Frequencies --   1130.7012              1139.9125              1187.0697
 Red. masses --     13.5645                 2.9118                12.3226
 Frc consts  --     10.2176                 2.2292                10.2307
 IR Inten    --    430.3328               311.4421                39.2831

                     34                     35                     36
                      A                      A                      A
 Frequencies --   1218.0884              1316.7637              1334.6316
 Red. masses --      4.9012                11.9671                12.8086
 Frc consts  --      4.2846                12.2252                13.4423
 IR Inten    --    416.6602                 0.7501                51.5600

                     37                     38                     39
                      A                      A                      A
 Frequencies --   1451.2990              1553.9555              1589.8916
 Red. masses --     12.5605                12.2474                12.4602
 Frc consts  --     15.5874                17.4250                18.5572
 IR Inten    --     18.6151               850.9730               294.3927

                     40                     41                     42
                      A                      A                      A
 Frequencies --   1712.3141              1726.7920              3519.5935
 Red. masses --     12.0356                12.0417                 1.0736
 Frc consts  --     20.7915                21.1552                 7.8358
 IR Inten    --     14.9035                63.8011                55.7188

 - Thermochemistry -
 -------------------
 Temperature   298.150 Kelvin.  Pressure   1.00000 Atm.
 Atom     1 has atomic number  6 and mass  12.00000

 Molecular mass:   245.96482 amu.
 Principal axes and moments of inertia in atomic units:
                           1         2         3
     Eigenvalues --  2120.580334131.885125889.44651
           X            0.99997   0.00733  -0.00303
           Y           -0.00734   0.99996  -0.00407
           Z            0.00300   0.00409   0.99999
 This molecule is an asymmetric top.
 Rotational symmetry number  1.
 Warning -- assumption of classical behavior for rotation
           may cause significant error
 Rotational temperatures (Kelvin)      0.04084     0.02096     0.01471
 Rotational constants (GHZ):           0.85106     0.43678     0.30644
 Zero-point vibrational energy     195474.4 (Joules/Mol)
                                   46.71951 (Kcal/Mol)
 Warning -- explicit consideration of  22 degrees of freedom as
           vibrations may cause significant error
 Vibrational temperatures:     18.86   100.89   192.92   209.76   233.56
          (Kelvin)            284.75   338.24   368.43   378.89   386.68
                              398.94   460.43   508.44   556.94   590.79
                              614.06   648.50   711.21   721.47   732.07
                              838.37   854.80   940.74   970.50  1035.68
                             1110.75  1220.84  1403.58  1460.70  1563.01
                             1626.83  1640.08  1707.93  1752.56  1894.53
                             1920.24  2088.10  2235.80  2287.50  2463.64
                             2484.47  5063.91

 Zero-point correction=                           0.074452 (Hartree/Particle)
 Thermal correction to Energy=                    0.087518
 Thermal correction to Enthalpy=                  0.088462
 Thermal correction to Gibbs Free Energy=         0.033424
 Sum of electronic and zero-point Energies=          -1331.460875
 Sum of electronic and thermal Energies=             -1331.447809
 Sum of electronic and thermal Enthalpies=           -1331.446865
 Sum of electronic and thermal Free Energies=        -1331.501902

                     E (Thermal)             CV                S
                      KCal/Mol        Cal/Mol-Kelvin    Cal/Mol-Kelvin
 Total                   54.918             47.348            115.836
 Electronic               0.000              0.000              0.000
 Translational            0.889              2.981             42.401
 Rotational               0.889              2.981             32.312
 Vibrational             53.141             41.386             41.124
 Vibration     1          0.593              1.987              7.473
 Vibration     2          0.598              1.968              4.150
 Vibration     3          0.613              1.919              2.887
 Vibration     4          0.617              1.907              2.726
 Vibration     5          0.622              1.889              2.522
 Vibration     6          0.637              1.843              2.152
 Vibration     7          0.655              1.787              1.840
 Vibration     8          0.666              1.753              1.688
 Vibration     9          0.670              1.740              1.640
 Vibration    10          0.673              1.731              1.604
 Vibration    11          0.678              1.715              1.550
 Vibration    12          0.706              1.635              1.310
 Vibration    13          0.730              1.568              1.151
 Vibration    14          0.756              1.498              1.011
 Vibration    15          0.775              1.447              0.924
 Vibration    16          0.788              1.412              0.869
 Vibration    17          0.810              1.359              0.794
 Vibration    18          0.850              1.263              0.672
 Vibration    19          0.857              1.247              0.655
 Vibration    20          0.864              1.230              0.636
 Vibration    21          0.940              1.069              0.480
 Vibration    22          0.952              1.044              0.460

 Optimization completed.
    -- Stationary point found.
 Normal termination of Gaussian 16 at Thu May 19 15:21:31 2022.
