 Gaussian 16, Revision C.01,
 Gaussian 16:  ES64L-G16RevC.01  3-Jul-2019

 -----------------------------------------------------
 #m062X/gen 6D OPT Freq=noraman SCRF=(SMD,Solvent=h2o)
 -----------------------------------------------------

 -------------------
 A.9.smd.a3b3c2.smd
 -------------------
 Symbolic Z-matrix:
 Charge = -1 Multiplicity = 1

 SCF Done:  E(RM062X) =  -949.992705197     A.U. after   15 cycles
 SCF Done:  E(RM062X) =  -950.001051794     A.U. after   15 cycles
 SCF Done:  E(RM062X) =  -950.004394559     A.U. after   14 cycles
 SCF Done:  E(RM062X) =  -950.004778647     A.U. after   14 cycles
 SCF Done:  E(RM062X) =  -950.005003046     A.U. after   14 cycles
 SCF Done:  E(RM062X) =  -950.005146599     A.U. after   14 cycles
 SCF Done:  E(RM062X) =  -950.005225412     A.U. after   13 cycles
 SCF Done:  E(RM062X) =  -950.005304763     A.U. after   14 cycles
 SCF Done:  E(RM062X) =  -950.005309290     A.U. after   12 cycles
 SCF Done:  E(RM062X) =  -950.005316361     A.U. after   12 cycles
 SCF Done:  E(RM062X) =  -950.005059970     A.U. after   14 cycles
 SCF Done:  E(RM062X) =  -950.005516994     A.U. after   11 cycles
 SCF Done:  E(RM062X) =  -950.004957296     A.U. after   14 cycles
 SCF Done:  E(RM062X) =  -950.005500887     A.U. after   12 cycles
 SCF Done:  E(RM062X) =  -950.005519275     A.U. after    8 cycles
 SCF Done:  E(RM062X) =  -950.005508604     A.U. after   12 cycles
 SCF Done:  E(RM062X) =  -950.005520922     A.U. after   11 cycles
 SCF Done:  E(RM062X) =  -950.005521901     A.U. after   11 cycles
 SCF Done:  E(RM062X) =  -950.005521999     A.U. after    9 cycles
 Optimization completed.
    -- Stationary point found.
 Normal termination of Gaussian 16 at Wed Jun 29 10:35:51 2022.

 ------------------------------------------------------------------
 #N Geom=AllCheck Guess=TCheck SCRF=Check GenChk RM062X/ChkBas Freq
 ------------------------------------------------------------------

 Structure from the checkpoint file:  "/jobfs/48670212.gadi-pbs/Gau-2811161.chk"
 -------------------
 A.9.smd.a3b3c2.smd
 -------------------
 Charge = -1 Multiplicity = 1

                         Standard orientation:
 ---------------------------------------------------------------------
 Center     Atomic      Atomic             Coordinates (Angstroms)
 Number     Number       Type             X           Y           Z
 ---------------------------------------------------------------------
      1          6           0        0.536650    0.052047   -0.019510
      2          6           0       -0.057276    1.319733   -0.029535
      3          1           0        0.559050    2.214429   -0.045832
      4          6           0       -1.437348    1.434757   -0.023179
      5          1           0       -1.918123    2.408472   -0.032547
      6          6           0       -2.236990    0.281336   -0.006961
      7          8           0       -3.583647    0.495024   -0.003813
      8          6           0       -1.648044   -0.983942    0.003440
      9          1           0       -2.249068   -1.885773    0.014387
     10          6           0       -0.253869   -1.088241   -0.000075
     11          1           0        0.212528   -2.068973    0.010238
     12         16           0        2.328771   -0.079040    0.013634
     13          8           0        2.767104    0.867685   -1.062035
     14          8           0        2.723797    0.377807    1.379024
     15          7           0        2.773878   -1.561683   -0.179114
     16          1           0        2.616271   -1.820427   -1.156494
     17          6           0       -4.432010   -0.649311    0.019745
     18          1           0       -5.450934   -0.263509    0.022508
     19          1           0       -4.258447   -1.241996    0.923592
     20          1           0       -4.273464   -1.268197   -0.869160
 ---------------------------------------------------------------------

 SCF Done:  E(RM062X) =  -950.005521999     A.U. after    1 cycles

 The electronic state is 1-A.
 Alpha  occ. eigenvalues --  -90.13154 -19.68378 -19.61640 -19.61617 -14.71671
 Alpha  occ. eigenvalues --  -10.62357 -10.58966 -10.57021 -10.56597 -10.56539
 Alpha  occ. eigenvalues --  -10.55749 -10.55710  -8.44044  -6.36284  -6.36186
 Alpha  occ. eigenvalues --   -6.36121  -1.20252  -1.19684  -1.08522  -0.97274
 Alpha  occ. eigenvalues --   -0.95705  -0.86445  -0.85418  -0.79378  -0.71697
 Alpha  occ. eigenvalues --   -0.69885  -0.65451  -0.61633  -0.58403  -0.56631
 Alpha  occ. eigenvalues --   -0.54800  -0.54483  -0.52454  -0.51909  -0.49798
 Alpha  occ. eigenvalues --   -0.48125  -0.47439  -0.45621  -0.43099  -0.41499
 Alpha  occ. eigenvalues --   -0.40659  -0.39741  -0.38806  -0.36853  -0.35255
 Alpha  occ. eigenvalues --   -0.32888  -0.31733  -0.29809  -0.28333
 Alpha virt. eigenvalues --    0.01325   0.01635   0.02039   0.03425   0.03997
 Alpha virt. eigenvalues --    0.04775   0.05005   0.05178   0.06200   0.06700
 Alpha virt. eigenvalues --    0.07233   0.07982   0.09514   0.09892   0.11046

 Mulliken charges:
               1
     1  C   -1.220099
     2  C    0.074996
     3  H    0.266057
     4  C   -0.228298
     5  H    0.259688
     6  C    0.081354
     7  O   -0.457242
     8  C    0.713766
     9  H    0.257916
    10  C   -0.846341
    11  H    0.265828
    12  S    1.543629
    13  O   -0.708715
    14  O   -0.726172
    15  N   -1.040660
    16  H    0.410943
    17  C   -0.366856
    18  H    0.242876
    19  H    0.238437
    20  H    0.238891
 Sum of Mulliken charges =  -1.00000

 Dipole moment (field-independent basis, Debye):
    X=            -18.1273    Y=             -2.3286    Z=             -2.3084  Tot=             18.4215
 Quadrupole moment (field-independent basis, Debye-Ang):
   XX=           -120.0254   YY=            -81.2596   ZZ=            -90.9249
   XY=              7.7380   XZ=             -6.1391   YZ=              4.3602

  Exact polarizability:     218.082      -2.817     183.446      -0.677      -0.911     120.743
 Approx polarizability:     171.824      -2.177     161.200      -0.084      -0.985     107.069

                      1                      2                      3
                      A                      A                      A
 Frequencies --     27.9822                72.3126               112.6653
 Red. masses --      5.2753                 4.0860                 4.9614
 Frc consts  --      0.0024                 0.0126                 0.0371
 IR Inten    --      1.3291                 0.7999                14.6599

                      4                      5                      6
                      A                      A                      A
 Frequencies --    148.8249               215.3915               244.3686
 Red. masses --      5.5708                 3.7231                 4.9345
 Frc consts  --      0.0727                 0.1018                 0.1736
 IR Inten    --      3.4881                11.8539                16.3628

                      7                      8                      9
                      A                      A                      A
 Frequencies --    277.8490               292.3986               332.2114
 Red. masses --      3.3627                 1.3752                 2.7812
 Frc consts  --      0.1530                 0.0693                 0.1808
 IR Inten    --     12.9224                 2.8993                65.5684

                     10                     11                     12
                      A                      A                      A
 Frequencies --    378.2264               421.9492               449.2405
 Red. masses --      5.0747                 3.0020                 2.7362
 Frc consts  --      0.4277                 0.3149                 0.3254
 IR Inten    --      6.8936                 3.8086                62.4032

                     13                     14                     15
                      A                      A                      A
 Frequencies --    481.3873               492.9263               515.6628
 Red. masses --      4.5999                 2.4511                11.2248
 Frc consts  --      0.6280                 0.3509                 1.7586
 IR Inten    --     12.5099               174.1371                49.9928

                     16                     17                     18
                      A                      A                      A
 Frequencies --    550.6551               564.0547               637.3909
 Red. masses --      2.6441                 7.3829                 7.1534
 Frc consts  --      0.4724                 1.3839                 1.7123
 IR Inten    --     77.4746               248.6798                10.4613

                     19                     20                     21
                      A                      A                      A
 Frequencies --    665.0913               728.1599               820.3902
 Red. masses --      7.7119                 4.0441                 5.7494
 Frc consts  --      2.0099                 1.2634                 2.2799
 IR Inten    --     62.4862                 4.5208                51.2086

                     22                     23                     24
                      A                      A                      A
 Frequencies --    845.4194               856.5348               959.5905
 Red. masses --      1.2476                 1.6640                13.3231
 Frc consts  --      0.5254                 0.7193                 7.2282
 IR Inten    --      6.3175               117.4135               411.0695

                     25                     26                     27
                      A                      A                      A
 Frequencies --    980.2335              1002.4080              1027.0767
 Red. masses --      1.3038                 1.3428                 3.0522
 Frc consts  --      0.7381                 0.7950                 1.8970
 IR Inten    --      0.1099                 0.1832                15.2698

                     28                     29                     30
                      A                      A                      A
 Frequencies --   1063.4113              1085.9440              1108.4094
 Red. masses --      4.0077                 6.2444                 3.9954
 Frc consts  --      2.6702                 4.3387                 2.8921
 IR Inten    --    674.0151                74.4595               464.9111

                     31                     32                     33
                      A                      A                      A
 Frequencies --   1133.6265              1139.8759              1169.6513
 Red. masses --      1.5280                 2.1096                 2.0703
 Frc consts  --      1.1570                 1.6150                 1.6688
 IR Inten    --     69.2883               156.5433               351.2661

                     34                     35                     36
                      A                      A                      A
 Frequencies --   1188.2525              1195.0814              1219.8457
 Red. masses --      1.2734                 1.2169                 1.4370
 Frc consts  --      1.0593                 1.0240                 1.2598
 IR Inten    --      1.9729                 6.9182                25.8914

                     37                     38                     39
                      A                      A                      A
 Frequencies --   1280.9386              1324.6914              1354.9088
 Red. masses --      4.1632                 1.2824                 9.0330
 Frc consts  --      4.0247                 1.3259                 9.7702
 IR Inten    --    455.3055                 6.6480                69.2630

                     40                     41                     42
                      A                      A                      A
 Frequencies --   1454.7501              1492.3309              1509.1993
 Red. masses --      3.3681                 1.1913                 1.0425
 Frc consts  --      4.1996                 1.5631                 1.3990
 IR Inten    --      9.5657                23.2845                14.1535

                     43                     44                     45
                      A                      A                      A
 Frequencies --   1516.8699              1543.7182              1658.9118
 Red. masses --      1.0556                 2.3791                 7.0272
 Frc consts  --      1.4310                 3.3404                11.3940
 IR Inten    --     33.3560               157.2562                84.7380

                     46                     47                     48
                      A                      A                      A
 Frequencies --   1675.7258              3087.8302              3162.9596
 Red. masses --      6.6278                 1.0324                 1.1080
 Frc consts  --     10.9655                 5.7995                 6.5308
 IR Inten    --    126.0886                53.5441                40.0180

                     49                     50                     51
                      A                      A                      A
 Frequencies --   3211.9414              3233.0266              3239.5401
 Red. masses --      1.1037                 1.0888                 1.0907
 Frc consts  --      6.7090                 6.7055                 6.7439
 IR Inten    --     20.9133                 1.1368                 0.4365

                     52                     53                     54
                      A                      A                      A
 Frequencies --   3244.9690              3267.1196              3509.8517
 Red. masses --      1.0963                 1.0930                 1.0735
 Frc consts  --      6.8011                 6.8739                 7.7914
 IR Inten    --      5.2915                 2.1547                37.9179

 - Thermochemistry -
 -------------------
 Temperature   298.150 Kelvin.  Pressure   1.00000 Atm.
 Atom     1 has atomic number  6 and mass  12.00000

 Molecular mass:   186.02249 amu.
 Principal axes and moments of inertia in atomic units:
                           1         2         3
     Eigenvalues --   739.543244351.672284720.78132
           X            0.99996   0.00803  -0.00278
           Y           -0.00798   0.99981   0.01750
           Z            0.00292  -0.01748   0.99984
 This molecule is an asymmetric top.
 Rotational symmetry number  1.
 Warning -- assumption of classical behavior for rotation
           may cause significant error
 Rotational temperatures (Kelvin)      0.11712     0.01990     0.01835
 Rotational constants (GHZ):           2.44035     0.41472     0.38230
 Zero-point vibrational energy     389825.8 (Joules/Mol)
                                   93.17060 (Kcal/Mol)
 Warning -- explicit consideration of  17 degrees of freedom as
           vibrations may cause significant error
 Vibrational temperatures:     40.26   104.04   162.10   214.13   309.90
          (Kelvin)            351.59   399.76   420.70   477.98   544.18
                              607.09   646.36   692.61   709.21   741.92
                              792.27   811.55   917.06   956.92  1047.66
                             1180.36  1216.37  1232.36  1380.64  1410.34
                             1442.24  1477.73  1530.01  1562.43  1594.75
                             1631.04  1640.03  1682.87  1709.63  1719.46
                             1755.09  1842.98  1905.94  1949.41  2093.06
                             2147.13  2171.40  2182.44  2221.07  2386.80
                             2411.00  4442.70  4550.79  4621.27  4651.60
                             4660.98  4668.79  4700.66  5049.89

 Zero-point correction=                           0.148477 (Hartree/Particle)
 Thermal correction to Energy=                    0.159539
 Thermal correction to Enthalpy=                  0.160483
 Thermal correction to Gibbs Free Energy=         0.110593
 Sum of electronic and zero-point Energies=           -949.857045
 Sum of electronic and thermal Energies=              -949.845983
 Sum of electronic and thermal Enthalpies=            -949.845039
 Sum of electronic and thermal Free Energies=         -949.894929

                     E (Thermal)             CV                S
                      KCal/Mol        Cal/Mol-Kelvin    Cal/Mol-Kelvin
 Total                  100.112             41.701            105.002
 Electronic               0.000              0.000              0.000
 Translational            0.889              2.981             41.568
 Rotational               0.889              2.981             31.097
 Vibrational             98.335             35.740             32.337
 Vibration     1          0.593              1.984              5.968
 Vibration     2          0.598              1.967              4.089
 Vibration     3          0.607              1.939              3.222
 Vibration     4          0.618              1.904              2.687
 Vibration     5          0.645              1.818              1.997
 Vibration     6          0.660              1.772              1.771
 Vibration     7          0.679              1.714              1.547
 Vibration     8          0.688              1.688              1.460
 Vibration     9          0.714              1.611              1.249
 Vibration    10          0.749              1.517              1.046
 Vibration    11          0.784              1.423              0.885
 Vibration    12          0.808              1.363              0.798
 Vibration    13          0.838              1.291              0.706
 Vibration    14          0.849              1.266              0.676
 Vibration    15          0.871              1.215              0.620
 Vibration    16          0.906              1.138              0.543
 Vibration    17          0.920              1.109              0.516

 Optimization completed.
    -- Stationary point found.
 Normal termination of Gaussian 16 at Wed Jun 29 10:39:29 2022.
