 Gaussian 16, Revision C.01,
 Gaussian 16:  ES64L-G16RevC.01  3-Jul-2019

 -----------------------------------------------------
 #m062X/gen 6D OPT Freq=noraman SCRF=(SMD,Solvent=h2o)
 -----------------------------------------------------

 ------------------
 HA.15.smd.a3d3.smd
 ------------------
 Symbolic Z-matrix:
 Charge =  0 Multiplicity = 1

 SCF Done:  E(RM062X) =  -1043.93743401     A.U. after   16 cycles
 SCF Done:  E(RM062X) =  -1043.93940569     A.U. after   15 cycles
 SCF Done:  E(RM062X) =  -1043.93989086     A.U. after   14 cycles
 SCF Done:  E(RM062X) =  -1043.94044077     A.U. after   13 cycles
 SCF Done:  E(RM062X) =  -1043.94080718     A.U. after   14 cycles
 SCF Done:  E(RM062X) =  -1043.94111879     A.U. after   15 cycles
 SCF Done:  E(RM062X) =  -1043.94136851     A.U. after   15 cycles
 SCF Done:  E(RM062X) =  -1043.94180787     A.U. after   14 cycles
 SCF Done:  E(RM062X) =  -1043.94204893     A.U. after   16 cycles
 SCF Done:  E(RM062X) =  -1043.94220740     A.U. after   14 cycles
 SCF Done:  E(RM062X) =  -1043.94234730     A.U. after   14 cycles
 SCF Done:  E(RM062X) =  -1043.94232349     A.U. after   14 cycles
 SCF Done:  E(RM062X) =  -1043.94235337     A.U. after   14 cycles
 SCF Done:  E(RM062X) =  -1043.94235462     A.U. after   11 cycles
 SCF Done:  E(RM062X) =  -1043.94235647     A.U. after   12 cycles
 SCF Done:  E(RM062X) =  -1043.94235586     A.U. after   12 cycles
 SCF Done:  E(RM062X) =  -1043.94235689     A.U. after   11 cycles
 SCF Done:  E(RM062X) =  -1043.94235674     A.U. after   11 cycles
 SCF Done:  E(RM062X) =  -1043.94235695     A.U. after   11 cycles
 Optimization completed.
    -- Stationary point found.
 Normal termination of Gaussian 16 at Sun May 22 14:22:52 2022.

 ------------------------------------------------------------------
 #N Geom=AllCheck Guess=TCheck SCRF=Check GenChk RM062X/ChkBas Freq
 ------------------------------------------------------------------

 Structure from the checkpoint file:  "/jobfs/40913393.gadi-pbs/Gau-3835974.chk"
 ------------------
 HA.15.smd.a3d3.smd
 ------------------
 Charge =  0 Multiplicity = 1

                         Standard orientation:
 ---------------------------------------------------------------------
 Center     Atomic      Atomic             Coordinates (Angstroms)
 Number     Number       Type             X           Y           Z
 ---------------------------------------------------------------------
      1          6           0       -1.182292    0.005599    0.095807
      2          6           0       -0.448800   -1.152020   -0.151021
      3          1           0       -0.944694   -2.107567   -0.290795
      4          6           0        0.938507   -1.062788   -0.212990
      5          1           0        1.513099   -1.960829   -0.419147
      6          6           0        1.570448    0.172311   -0.038084
      7          6           0        3.063017    0.325551   -0.116851
      8          6           0        0.812148    1.323022    0.194071
      9          1           0        1.310919    2.277631    0.326184
     10          6           0       -0.574364    1.246732    0.268958
     11          1           0       -1.167155    2.134527    0.465226
     12         16           0       -2.959607   -0.097664    0.131069
     13          8           0       -3.324290   -1.451405    0.547877
     14          8           0       -3.464787    1.050770    0.882022
     15          7           0       -3.523679    0.074159   -1.410633
     16          1           0       -3.185285   -0.672357   -2.021722
     17          1           0       -3.291517    0.990395   -1.799890
     18          7           0        3.808092   -0.730734    0.227640
     19          8           0        3.569713    1.398812   -0.484954
     20          6           0        5.259812   -0.677498    0.174477
     21          1           0        5.648905   -1.649973    0.472239
     22          1           0        5.644521    0.088790    0.853292
     23          1           0        5.595518   -0.449425   -0.840255
     24          1           0        3.362562   -1.563426    0.592948
 ---------------------------------------------------------------------

 SCF Done:  E(RM062X) =  -1043.94235695     A.U. after    1 cycles

 The electronic state is 1-A.
 Alpha  occ. eigenvalues --  -90.18346 -19.66355 -19.66328 -19.63115 -14.80383
 Alpha  occ. eigenvalues --  -14.80071 -10.67174 -10.60619 -10.58822 -10.58411
 Alpha  occ. eigenvalues --  -10.58330 -10.57940 -10.57631 -10.57385  -8.49344
 Alpha  occ. eigenvalues --   -6.41541  -6.41533  -6.41404  -1.26296  -1.17384
 Alpha  occ. eigenvalues --   -1.14853  -1.04239  -1.03309  -0.99358  -0.89819
 Alpha  occ. eigenvalues --   -0.87101  -0.81571  -0.77165  -0.71837  -0.70746
 Alpha  occ. eigenvalues --   -0.67506  -0.64652  -0.62871  -0.61668  -0.59450
 Alpha  occ. eigenvalues --   -0.56697  -0.54714  -0.54012  -0.53642  -0.52453
 Alpha  occ. eigenvalues --   -0.51985  -0.51033  -0.47946  -0.46684  -0.45807
 Alpha  occ. eigenvalues --   -0.45393  -0.43982  -0.42747  -0.42241  -0.40727
 Alpha  occ. eigenvalues --   -0.40280  -0.38536  -0.35701  -0.33708  -0.33011
 Alpha  occ. eigenvalues --   -0.32454
 Alpha virt. eigenvalues --   -0.03628  -0.00138   0.01122   0.02482   0.03706
 Alpha virt. eigenvalues --    0.03744   0.04465   0.04845   0.05003   0.05644
 Alpha virt. eigenvalues --    0.05845   0.06172   0.07243   0.08386   0.08546

 Mulliken charges:
               1
     1  C   -1.091588
     2  C   -0.112202
     3  H    0.287055
     4  C   -0.350288
     5  H    0.272595
     6  C    0.305749
     7  C    0.637223
     8  C   -0.173024
     9  H    0.276516
    10  C   -0.187644
    11  H    0.288119
    12  S    1.610186
    13  O   -0.622863
    14  O   -0.634181
    15  N   -1.007772
    16  H    0.506695
    17  H    0.507283
    18  N   -0.552706
    19  O   -0.697576
    20  C   -0.496799
    21  H    0.250022
    22  H    0.250995
    23  H    0.250390
    24  H    0.483814
 Sum of Mulliken charges =  -0.00000

 Dipole moment (field-independent basis, Debye):
    X=              5.6391    Y=             -4.5425    Z=             -3.6713  Tot=              8.1187
 Quadrupole moment (field-independent basis, Debye-Ang):
   XX=           -110.5226   YY=            -87.4098   ZZ=            -87.1774
   XY=            -25.0463   XZ=             24.7819   YZ=              2.1024

  Exact polarizability:     240.351      -1.498     203.338      -0.189       3.069     127.563
 Approx polarizability:     188.780      -0.624     185.278      -1.731       3.355     115.236

                      1                      2                      3
                      A                      A                      A
 Frequencies --     33.4219                56.0425                67.7165
 Red. masses --      5.2472                 4.9983                 3.7218
 Frc consts  --      0.0035                 0.0092                 0.0101
 IR Inten    --     17.6848                 9.7323                12.3805

                      4                      5                      6
                      A                      A                      A
 Frequencies --    107.8236               129.9613               143.3229
 Red. masses --      4.0060                 1.8324                 1.9153
 Frc consts  --      0.0274                 0.0182                 0.0232
 IR Inten    --      8.1149                10.3907                 0.9133

                      7                      8                      9
                      A                      A                      A
 Frequencies --    183.7858               226.4291               236.0687
 Red. masses --      4.9390                 4.6944                10.4303
 Frc consts  --      0.0983                 0.1418                 0.3425
 IR Inten    --     14.1726                10.4597                 1.7507

                     10                     11                     12
                      A                      A                      A
 Frequencies --    283.4103               309.7846               325.6190
 Red. masses --      1.8125                 2.6790                 4.9118
 Frc consts  --      0.0858                 0.1515                 0.3068
 IR Inten    --     10.5993                37.2591                33.5510

                     13                     14                     15
                      A                      A                      A
 Frequencies --    397.6544               414.2812               430.6810
 Red. masses --      3.0939                 2.8796                 5.2355
 Frc consts  --      0.2882                 0.2912                 0.5722
 IR Inten    --      8.8792                 1.4721                 8.5557

                     16                     17                     18
                      A                      A                      A
 Frequencies --    445.9968               456.3994               499.6317
 Red. masses --      5.7162                 4.4641                 7.1188
 Frc consts  --      0.6699                 0.5479                 1.0470
 IR Inten    --     28.1232                36.3987                60.2307

                     19                     20                     21
                      A                      A                      A
 Frequencies --    537.7877               551.3747               592.7479
 Red. masses --      1.2086                 3.4914                 8.0533
 Frc consts  --      0.2059                 0.6254                 1.6671
 IR Inten    --    139.1316               112.5720                77.0289

                     22                     23                     24
                      A                      A                      A
 Frequencies --    636.5503               713.3201               721.7314
 Red. masses --      6.8719                 3.8630                 3.2731
 Frc consts  --      1.6406                 1.1581                 1.0045
 IR Inten    --      0.2247                55.5832               192.7987

                     25                     26                     27
                      A                      A                      A
 Frequencies --    763.9124               782.1776               859.1242
 Red. masses --      3.3989                 3.3646                 3.7126
 Frc consts  --      1.1686                 1.2128                 1.6145
 IR Inten    --    690.0663                31.7443                 3.2017

                     28                     29                     30
                      A                      A                      A
 Frequencies --    867.3937               876.0241               902.4918
 Red. masses --      1.2637                 1.8691                 2.3892
 Frc consts  --      0.5602                 0.8451                 1.1465
 IR Inten    --      0.5483                69.7644                10.6308

                     31                     32                     33
                      A                      A                      A
 Frequencies --   1006.6186              1018.9242              1025.9016
 Red. masses --      1.3807                 1.4173                 3.5312
 Frc consts  --      0.8243                 0.8669                 2.1897
 IR Inten    --      0.9398                 2.1361                13.7379

                     34                     35                     36
                      A                      A                      A
 Frequencies --   1052.7904              1112.8405              1129.9566
 Red. masses --      3.1826                 4.1435                 1.2581
 Frc consts  --      2.0783                 3.0233                 0.9465
 IR Inten    --     10.7005               112.2747                 6.0180

                     37                     38                     39
                      A                      A                      A
 Frequencies --   1146.9300              1158.5626              1161.7842
 Red. masses --      1.3083                 4.9664                 1.2950
 Frc consts  --      1.0139                 3.9276                 1.0299
 IR Inten    --     13.1516               408.4962                 2.4227

                     40                     41                     42
                      A                      A                      A
 Frequencies --   1197.1997              1200.0610              1220.8933
 Red. masses --      2.2171                 1.6691                 1.5066
 Frc consts  --      1.8722                 1.4163                 1.3231
 IR Inten    --      2.1537                 6.6203                15.2032

                     43                     44                     45
                      A                      A                      A
 Frequencies --   1306.6662              1332.9622              1342.5571
 Red. masses --     10.8200                 1.5036                 3.6703
 Frc consts  --     10.8844                 1.5741                 3.8978
 IR Inten    --    589.9042                26.5048                12.5641

                     46                     47                     48
                      A                      A                      A
 Frequencies --   1362.0610              1442.8832              1465.6829
 Red. masses --      1.9700                 3.0494                 1.2419
 Frc consts  --      2.1533                 3.7405                 1.5719
 IR Inten    --     79.6818                11.1100                73.9905

                     49                     50                     51
                      A                      A                      A
 Frequencies --   1493.2393              1512.8590              1540.8760
 Red. masses --      1.0386                 1.0866                 2.2052
 Frc consts  --      1.3644                 1.4653                 3.0849
 IR Inten    --     17.9052                18.2934                47.8563

                     52                     53                     54
                      A                      A                      A
 Frequencies --   1591.1645              1600.1991              1646.2392
 Red. masses --      1.0978                 2.5877                 7.5762
 Frc consts  --      1.6376                 3.9040                12.0972
 IR Inten    --    106.8169               560.6809               375.0781

                     55                     56                     57
                      A                      A                      A
 Frequencies --   1680.2450              1688.1107              3103.0262
 Red. masses --      7.4051                 6.4689                 1.0354
 Frc consts  --     12.3176                10.8614                 5.8739
 IR Inten    --    257.2610               249.9477                35.9376

                     58                     59                     60
                      A                      A                      A
 Frequencies --   3169.9866              3221.2207              3242.9240
 Red. masses --      1.1058                 1.1033                 1.0899
 Frc consts  --      6.5472                 6.7451                 6.7530
 IR Inten    --     23.2159                12.2036                 0.9505

                     61                     62                     63
                      A                      A                      A
 Frequencies --   3250.3911              3254.0160              3260.3408
 Red. masses --      1.0896                 1.0960                 1.0962
 Frc consts  --      6.7827                 6.8376                 6.8653
 IR Inten    --      2.0612                 1.8791                 0.8422

                     64                     65                     66
                      A                      A                      A
 Frequencies --   3496.4825              3596.6773              3644.3558
 Red. masses --      1.0488                 1.0980                 1.0797
 Frc consts  --      7.5547                 8.3685                 8.4490
 IR Inten    --    138.6705               153.6372               167.9385

 - Thermochemistry -
 -------------------
 Temperature   298.150 Kelvin.  Pressure   1.00000 Atm.
 Atom     1 has atomic number  6 and mass  12.00000

 Molecular mass:   214.04121 amu.
 Principal axes and moments of inertia in atomic units:
                           1         2         3
     Eigenvalues --   908.270606935.694077395.83737
           X            0.99990  -0.01088   0.00887
           Y            0.01079   0.99989   0.01050
           Z           -0.00898  -0.01040   0.99991
 This molecule is an asymmetric top.
 Rotational symmetry number  1.
 Warning -- assumption of classical behavior for rotation
           may cause significant error
 Rotational temperatures (Kelvin)      0.09536     0.01249     0.01171
 Rotational constants (GHZ):           1.98701     0.26021     0.24402
 Zero-point vibrational energy     485865.1 (Joules/Mol)
                                  116.12454 (Kcal/Mol)
 Warning -- explicit consideration of  21 degrees of freedom as
           vibrations may cause significant error
 Vibrational temperatures:     48.09    80.63    97.43   155.13   186.99
          (Kelvin)            206.21   264.43   325.78   339.65   407.76
                              445.71   468.49   572.14   596.06   619.65
                              641.69   656.66   718.86   773.76   793.31
                              852.83   915.85  1026.31  1038.41  1099.10
                             1125.38  1236.09  1247.99  1260.40  1298.48
                             1448.30  1466.00  1476.04  1514.73  1601.13
                             1625.76  1650.18  1666.91  1671.55  1722.50
                             1726.62  1756.59  1880.00  1917.84  1931.64
                             1959.70  2075.99  2108.79  2148.44  2176.67
                             2216.98  2289.33  2302.33  2368.57  2417.50
                             2428.81  4464.56  4560.90  4634.62  4665.84
                             4676.59  4681.80  4690.90  5030.66  5174.82
                             5243.42

 Zero-point correction=                           0.185056 (Hartree/Particle)
 Thermal correction to Energy=                    0.198603
 Thermal correction to Enthalpy=                  0.199547
 Thermal correction to Gibbs Free Energy=         0.143800
 Sum of electronic and zero-point Energies=          -1043.757301
 Sum of electronic and thermal Energies=             -1043.743754
 Sum of electronic and thermal Enthalpies=           -1043.742810
 Sum of electronic and thermal Free Energies=        -1043.798557

                     E (Thermal)             CV                S
                      KCal/Mol        Cal/Mol-Kelvin    Cal/Mol-Kelvin
 Total                  124.625             50.186            117.329
 Electronic               0.000              0.000              0.000
 Translational            0.889              2.981             41.986
 Rotational               0.889              2.981             32.210
 Vibrational            122.848             44.225             43.133
 Vibration     1          0.594              1.983              5.615
 Vibration     2          0.596              1.975              4.592
 Vibration     3          0.598              1.970              4.219
 Vibration     4          0.606              1.943              3.308
 Vibration     5          0.612              1.923              2.947
 Vibration     6          0.616              1.910              2.759
 Vibration     7          0.631              1.862              2.290
 Vibration     8          0.650              1.801              1.907
 Vibration     9          0.655              1.786              1.832
 Vibration    10          0.682              1.704              1.513
 Vibration    11          0.699              1.655              1.363
 Vibration    12          0.710              1.624              1.282
 Vibration    13          0.764              1.475              0.971
 Vibration    14          0.778              1.439              0.912
 Vibration    15          0.792              1.403              0.856
 Vibration    16          0.805              1.370              0.808
 Vibration    17          0.815              1.347              0.777
 Vibration    18          0.855              1.251              0.659
 Vibration    19          0.893              1.166              0.570
 Vibration    20          0.907              1.137              0.541
 Vibration    21          0.950              1.047              0.462

 Optimization completed.
    -- Stationary point found.
 Normal termination of Gaussian 16 at Sun May 22 14:28:41 2022.
