 Gaussian 16, Revision C.01,
 Gaussian 16:  ES64L-G16RevC.01  3-Jul-2019

 -----------------------------------------------------
 #m062X/gen 6D OPT Freq=noraman SCRF=(SMD,Solvent=h2o)
 -----------------------------------------------------

 ------------------
 HA.14.smd.a2d2.smd
 ------------------
 Symbolic Z-matrix:
 Charge =  0 Multiplicity = 1

 SCF Done:  E(RM062X) =  -1063.71075716     A.U. after   16 cycles
 SCF Done:  E(RM062X) =  -1063.77707600     A.U. after   15 cycles
 SCF Done:  E(RM062X) =  -1063.77724097     A.U. after   14 cycles
 SCF Done:  E(RM062X) =  -1063.78531724     A.U. after   16 cycles
 SCF Done:  E(RM062X) =  -1063.78632406     A.U. after   14 cycles
 SCF Done:  E(RM062X) =  -1063.78710461     A.U. after   15 cycles
 SCF Done:  E(RM062X) =  -1063.78884384     A.U. after   14 cycles
 SCF Done:  E(RM062X) =  -1063.78999113     A.U. after   15 cycles
 SCF Done:  E(RM062X) =  -1063.79077413     A.U. after   14 cycles
 SCF Done:  E(RM062X) =  -1063.79093897     A.U. after   13 cycles
 SCF Done:  E(RM062X) =  -1063.79102479     A.U. after   13 cycles
 SCF Done:  E(RM062X) =  -1063.79111144     A.U. after   13 cycles
 SCF Done:  E(RM062X) =  -1063.79113063     A.U. after   11 cycles
 SCF Done:  E(RM062X) =  -1063.79113433     A.U. after   11 cycles
 SCF Done:  E(RM062X) =  -1063.79113508     A.U. after   10 cycles
 SCF Done:  E(RM062X) =  -1063.79113554     A.U. after    9 cycles
 SCF Done:  E(RM062X) =  -1063.79113548     A.U. after    9 cycles
 Optimization completed.
    -- Stationary point found.
 Normal termination of Gaussian 16 at Sun May 22 14:06:57 2022.

 ------------------------------------------------------------------
 #N Geom=AllCheck Guess=TCheck SCRF=Check GenChk RM062X/ChkBas Freq
 ------------------------------------------------------------------

 Structure from the checkpoint file:  "/jobfs/40912865.gadi-pbs/Gau-1159940.chk"
 ------------------
 HA.14.smd.a2d2.smd
 ------------------
 Charge =  0 Multiplicity = 1

                         Standard orientation:
 ---------------------------------------------------------------------
 Center     Atomic      Atomic             Coordinates (Angstroms)
 Number     Number       Type             X           Y           Z
 ---------------------------------------------------------------------
      1          6           0       -0.902520   -0.302697   -0.006953
      2          6           0       -0.514383    1.043453    0.055581
      3          6           0        0.904267    1.496130    0.203546
      4          6           0       -1.493459    2.031216   -0.029165
      5          1           0       -1.196898    3.073966    0.033060
      6          6           0       -2.831952    1.683302   -0.209413
      7          6           0       -3.201925    0.344132   -0.288855
      8          1           0       -4.242999    0.069279   -0.423472
      9          6           0       -2.236935   -0.657003   -0.174729
     10          1           0       -2.522708   -1.703305   -0.197877
     11         16           0        0.278899   -1.627846    0.231907
     12          8           0        1.265925   -1.161926    1.206137
     13          8           0       -0.484933   -2.842343    0.514181
     14          7           0        1.085691   -1.919878   -1.173773
     15          1           0        1.575635   -1.084815   -1.501539
     16          1           0        0.460741   -2.286608   -1.894427
     17          8           0        1.263592    2.326201    1.013243
     18          8           0        1.712265    0.926945   -0.686872
     19          6           0        3.116460    1.217239   -0.551312
     20          1           0       -3.583314    2.462827   -0.284634
     21          1           0        3.608007    0.628814   -1.323722
     22          1           0        3.456770    0.916034    0.441463
     23          1           0        3.290434    2.282840   -0.708663
 ---------------------------------------------------------------------

 SCF Done:  E(RM062X) =  -1063.79113548     A.U. after    1 cycles

 The electronic state is 1-A.
 Alpha  occ. eigenvalues --  -90.18547 -19.71370 -19.66367 -19.66358 -19.66324
 Alpha  occ. eigenvalues --  -14.80244 -10.71401 -10.61269 -10.60229 -10.59924
 Alpha  occ. eigenvalues --  -10.58373 -10.58000 -10.57545 -10.57464  -8.49509
 Alpha  occ. eigenvalues --   -6.41707  -6.41690  -6.41583  -1.26571  -1.25823
 Alpha  occ. eigenvalues --   -1.16498  -1.14883  -1.03358  -0.99751  -0.89681
 Alpha  occ. eigenvalues --   -0.88456  -0.83263  -0.77599  -0.73007  -0.70467
 Alpha  occ. eigenvalues --   -0.67194  -0.65406  -0.62104  -0.61151  -0.59624
 Alpha  occ. eigenvalues --   -0.58543  -0.57890  -0.56131  -0.55041  -0.53382
 Alpha  occ. eigenvalues --   -0.52534  -0.50279  -0.48356  -0.46484  -0.45664
 Alpha  occ. eigenvalues --   -0.44683  -0.43843  -0.43452  -0.42268  -0.40865
 Alpha  occ. eigenvalues --   -0.40563  -0.39192  -0.38595  -0.37988  -0.33352
 Alpha  occ. eigenvalues --   -0.33148
 Alpha virt. eigenvalues --   -0.03316  -0.00783   0.01473   0.03121   0.03282
 Alpha virt. eigenvalues --    0.03780   0.04476   0.04768   0.05185   0.05684
 Alpha virt. eigenvalues --    0.06027   0.06546   0.07341   0.07739   0.08769

 Mulliken charges:
               1
     1  C   -1.038688
     2  C    0.384613
     3  C    0.436474
     4  C   -0.196809
     5  H    0.283372
     6  C   -0.283860
     7  C   -0.052321
     8  H    0.269829
     9  C   -0.086627
    10  H    0.289439
    11  S    1.557177
    12  O   -0.612083
    13  O   -0.661782
    14  N   -1.045001
    15  H    0.533454
    16  H    0.508453
    17  O   -0.513026
    18  O   -0.378575
    19  C   -0.437183
    20  H    0.271416
    21  H    0.257193
    22  H    0.258696
    23  H    0.255841
 Sum of Mulliken charges =  -0.00000

 Dipole moment (field-independent basis, Debye):
    X=             -3.0584    Y=              3.4496    Z=             -8.1975  Tot=              9.4049
 Quadrupole moment (field-independent basis, Debye-Ang):
   XX=            -66.4704   YY=           -100.4011   ZZ=            -91.0133
   XY=             -2.1279   XZ=             -6.9359   YZ=              3.7287

  Exact polarizability:     216.281      -3.597     200.681       6.236      10.960     129.895
 Approx polarizability:     180.305       1.814     174.169       6.824      10.470     118.571

                      1                      2                      3
                      A                      A                      A
 Frequencies --     57.5639                88.7877               101.0759
 Red. masses --      6.0851                 4.0039                 4.1238
 Frc consts  --      0.0119                 0.0186                 0.0248
 IR Inten    --      6.4705                 3.7890                12.0430

                      4                      5                      6
                      A                      A                      A
 Frequencies --    113.2244               145.7457               173.0291
 Red. masses --      5.6848                 4.9707                 1.1669
 Frc consts  --      0.0429                 0.0622                 0.0206
 IR Inten    --      4.7602                 5.2144                 0.4632

                      7                      8                      9
                      A                      A                      A
 Frequencies --    206.7134               236.8687               254.6837
 Red. masses --      5.4604                 4.8111                 5.9071
 Frc consts  --      0.1375                 0.1590                 0.2258
 IR Inten    --      7.3336                11.8015                 5.5230

                     10                     11                     12
                      A                      A                      A
 Frequencies --    294.4910               313.3456               326.9911
 Red. masses --      4.5154                 4.2190                 1.9544
 Frc consts  --      0.2307                 0.2441                 0.1231
 IR Inten    --     35.7504                 2.0521                24.7089

                     13                     14                     15
                      A                      A                      A
 Frequencies --    368.7516               384.1073               423.3860
 Red. masses --      4.0989                 3.7600                 2.8722
 Frc consts  --      0.3284                 0.3268                 0.3033
 IR Inten    --     21.0855                 3.2414                22.3201

                     16                     17                     18
                      A                      A                      A
 Frequencies --    444.4709               476.8754               530.4748
 Red. masses --      4.4717                 6.0493                 5.4666
 Frc consts  --      0.5205                 0.8105                 0.9064
 IR Inten    --     18.1142                14.9207               101.0846

                     19                     20                     21
                      A                      A                      A
 Frequencies --    562.8496               572.7878               663.0575
 Red. masses --      4.3987                 8.7016                 6.1951
 Frc consts  --      0.8210                 1.6820                 1.6047
 IR Inten    --      8.9275                94.7300                 6.8982

                     22                     23                     24
                      A                      A                      A
 Frequencies --    714.7856               727.7482               772.5163
 Red. masses --      4.7243                 3.7752                 3.1190
 Frc consts  --      1.4221                 1.1780                 1.0967
 IR Inten    --     42.9686               161.8513               624.1861

                     25                     26                     27
                      A                      A                      A
 Frequencies --    776.4785               809.0882               854.0015
 Red. masses --      1.7864                 2.5833                 5.1518
 Frc consts  --      0.6346                 0.9963                 2.2137
 IR Inten    --    114.3641                33.7213                27.7491

                     28                     29                     30
                      A                      A                      A
 Frequencies --    898.7074               921.2000              1002.3622
 Red. masses --      2.2702                 1.4161                 1.7755
 Frc consts  --      1.0803                 0.7080                 1.0511
 IR Inten    --     22.8180                 3.6581                18.3798

                     31                     32                     33
                      A                      A                      A
 Frequencies --   1011.8332              1042.9877              1066.7191
 Red. masses --      3.2082                 1.3385                 5.5009
 Frc consts  --      1.9352                 0.8579                 3.6879
 IR Inten    --     16.2507                 0.1397                34.3381

                     34                     35                     36
                      A                      A                      A
 Frequencies --   1083.6492              1131.6499              1138.1702
 Red. masses --      2.4279                 1.3711                 3.8123
 Frc consts  --      1.6798                 1.0345                 2.9097
 IR Inten    --     48.0190                39.3438               265.7197

                     37                     38                     39
                      A                      A                      A
 Frequencies --   1168.2096              1176.9863              1181.5853
 Red. masses --      1.9727                 2.6057                 1.1306
 Frc consts  --      1.5861                 2.1268                 0.9300
 IR Inten    --    162.6330                91.3266                 4.3199

                     40                     41                     42
                      A                      A                      A
 Frequencies --   1184.5524              1235.7314              1291.5715
 Red. masses --      1.2829                 1.6592                 1.6639
 Frc consts  --      1.0606                 1.4928                 1.6353
 IR Inten    --      4.7104                26.8442               136.8686

                     43                     44                     45
                      A                      A                      A
 Frequencies --   1305.5780              1338.3592              1351.3538
 Red. masses --      9.0553                 3.9411                 5.2465
 Frc consts  --      9.0940                 4.1593                 5.6449
 IR Inten    --    610.4031               366.7310               286.2088

                     46                     47                     48
                      A                      A                      A
 Frequencies --   1483.8285              1491.6047              1494.6853
 Red. masses --      1.8306                 1.4455                 1.0453
 Frc consts  --      2.3747                 1.8949                 1.3759
 IR Inten    --     22.5207                41.3885                17.2018

                     49                     50                     51
                      A                      A                      A
 Frequencies --   1501.7732              1528.1656              1592.2451
 Red. masses --      1.0557                 2.7154                 1.1032
 Frc consts  --      1.4028                 3.7361                 1.6478
 IR Inten    --     30.3729                27.6729               120.6354

                     52                     53                     54
                      A                      A                      A
 Frequencies --   1654.6200              1674.2408              1784.0445
 Red. masses --      6.5194                 6.6609                11.7817
 Frc consts  --     10.5161                11.0006                22.0938
 IR Inten    --     13.4933                 7.8816               787.4523

                     55                     56                     57
                      A                      A                      A
 Frequencies --   3117.5757              3206.8694              3236.7403
 Red. masses --      1.0297                 1.1093                 1.1080
 Frc consts  --      5.8965                 6.7212                 6.8392
 IR Inten    --     25.0614                13.7011                 8.3029

                     58                     59                     60
                      A                      A                      A
 Frequencies --   3241.5335              3249.1499              3256.9077
 Red. masses --      1.0891                 1.0920                 1.0954
 Frc consts  --      6.7422                 6.7921                 6.8457
 IR Inten    --      0.5226                 1.5997                 2.4569

                     61                     62                     63
                      A                      A                      A
 Frequencies --   3264.2734              3502.5872              3600.9214
 Red. masses --      1.0966                 1.0478                 1.0978
 Frc consts  --      6.8848                 7.5739                 8.3870
 IR Inten    --      5.5557               136.8624               211.5021

 - Thermochemistry -
 -------------------
 Temperature   298.150 Kelvin.  Pressure   1.00000 Atm.
 Atom     1 has atomic number  6 and mass  12.00000

 Molecular mass:   215.02523 amu.
 Principal axes and moments of inertia in atomic units:
                           1         2         3
     Eigenvalues --  2338.233672610.522324327.46903
           X            0.99969   0.02286  -0.00987
           Y           -0.02279   0.99971   0.00715
           Z            0.01003  -0.00693   0.99993
 This molecule is an asymmetric top.
 Rotational symmetry number  1.
 Warning -- assumption of classical behavior for rotation
           may cause significant error
 Rotational temperatures (Kelvin)      0.03704     0.03318     0.02001
 Rotational constants (GHZ):           0.77184     0.69133     0.41704
 Zero-point vibrational energy     453425.8 (Joules/Mol)
                                  108.37136 (Kcal/Mol)
 Warning -- explicit consideration of  20 degrees of freedom as
           vibrations may cause significant error
 Vibrational temperatures:     82.82   127.75   145.43   162.90   209.70
          (Kelvin)            248.95   297.41   340.80   366.43   423.71
                              450.83   470.47   530.55   552.64   609.16
                              639.49   686.12   763.23   809.82   824.11
                              953.99  1028.42  1047.07  1111.48  1117.18
                             1164.10  1228.72  1293.04  1325.40  1442.18
                             1455.80  1500.63  1534.77  1559.13  1628.19
                             1637.57  1680.79  1693.42  1700.04  1704.31
                             1777.94  1858.28  1878.44  1925.60  1944.30
                             2134.90  2146.09  2150.52  2160.72  2198.69
                             2290.89  2380.63  2408.86  2566.84  4485.50
                             4613.97  4656.95  4663.84  4674.80  4685.96
                             4696.56  5039.44  5180.92

 Zero-point correction=                           0.172701 (Hartree/Particle)
 Thermal correction to Energy=                    0.185701
 Thermal correction to Enthalpy=                  0.186645
 Thermal correction to Gibbs Free Energy=         0.133263
 Sum of electronic and zero-point Energies=          -1063.618435
 Sum of electronic and thermal Energies=             -1063.605434
 Sum of electronic and thermal Enthalpies=           -1063.604490
 Sum of electronic and thermal Free Energies=        -1063.657872

                     E (Thermal)             CV                S
                      KCal/Mol        Cal/Mol-Kelvin    Cal/Mol-Kelvin
 Total                  116.529             48.780            112.352
 Electronic               0.000              0.000              0.000
 Translational            0.889              2.981             42.000
 Rotational               0.889              2.981             31.647
 Vibrational            114.752             42.819             38.706
 Vibration     1          0.596              1.974              4.539
 Vibration     2          0.602              1.957              3.687
 Vibration     3          0.604              1.948              3.433
 Vibration     4          0.607              1.938              3.213
 Vibration     5          0.617              1.907              2.727
 Vibration     6          0.627              1.876              2.402
 Vibration     7          0.641              1.830              2.073
 Vibration     8          0.656              1.784              1.826
 Vibration     9          0.665              1.755              1.698
 Vibration    10          0.689              1.684              1.448
 Vibration    11          0.701              1.648              1.345
 Vibration    12          0.711              1.622              1.275
 Vibration    13          0.741              1.536              1.085
 Vibration    14          0.753              1.504              1.023
 Vibration    15          0.786              1.419              0.881
 Vibration    16          0.804              1.373              0.813
 Vibration    17          0.833              1.301              0.719
 Vibration    18          0.885              1.183              0.586
 Vibration    19          0.919              1.112              0.518
 Vibration    20          0.929              1.090              0.499

 Optimization completed.
    -- Stationary point found.
 Normal termination of Gaussian 16 at Sun May 22 14:13:33 2022.
