 Gaussian 16, Revision C.01,
 Gaussian 16:  ES64L-G16RevC.01  3-Jul-2019

 ----------------------------------------------------------------------
 #m062X/gen 6D OPT Freq=Noraman INT(grid=ultrafine) SCRF=(SMD,Solvent=h
 2o)
 ----------------------------------------------------------------------

 -----
 a2 b1
 -----
 Symbolic Z-matrix:
 Charge =  0 Multiplicity = 1

 SCF Done:  E(RM062X) =  -644.330735072     A.U. after   12 cycles
 SCF Done:  E(RM062X) =  -644.330768671     A.U. after   10 cycles
 SCF Done:  E(RM062X) =  -644.330773801     A.U. after    9 cycles
 SCF Done:  E(RM062X) =  -644.330774190     A.U. after    8 cycles
 Optimization completed.
    -- Stationary point found.
 Normal termination of Gaussian 16 at Thu May 19 20:16:15 2022.

 ------------------------------------------------------------------
 #N Geom=AllCheck Guess=TCheck SCRF=Check GenChk RM062X/ChkBas Freq
 ------------------------------------------------------------------

 Structure from the checkpoint file:  "/jobfs/40666076.gadi-pbs/Gau-722983.chk"
 -----
 a2 b1
 -----
 Charge =  0 Multiplicity = 1

                         Standard orientation:
 ---------------------------------------------------------------------
 Center     Atomic      Atomic             Coordinates (Angstroms)
 Number     Number       Type             X           Y           Z
 ---------------------------------------------------------------------
      1         16           0       -0.050633   -0.148734   -0.000045
      2          8           0       -0.222518   -0.877055   -1.260599
      3          8           0       -0.221152   -0.878968    1.259573
      4          7           0       -1.187218    1.048278    0.001306
      5          1           0       -1.137228    1.625804   -0.839885
      6          6           0        1.557605    0.602789   -0.000252
      7          1           0        1.650516    1.213434   -0.900334
      8          1           0        2.294758   -0.204032   -0.001313
      9          1           0        1.651401    1.211971    0.900674
     10          1           0       -1.135063    1.626068    0.842163
 ---------------------------------------------------------------------

 SCF Done:  E(RM062X) =  -644.330774190     A.U. after    1 cycles

 The electronic state is 1-A.
 Alpha  occ. eigenvalues --  -90.17705 -19.65725 -19.65724 -14.80011 -10.57984
 Alpha  occ. eigenvalues --   -8.48754  -6.40952  -6.40945  -6.40785  -1.25563
 Alpha  occ. eigenvalues --   -1.14013  -1.02955  -0.86997  -0.72048  -0.61735
 Alpha  occ. eigenvalues --   -0.61554  -0.57920  -0.54810  -0.50403  -0.50131
 Alpha  occ. eigenvalues --   -0.43557  -0.41476  -0.39559  -0.39467  -0.38068
 Alpha virt. eigenvalues --    0.01340   0.04602   0.04694   0.05033   0.06775
 Alpha virt. eigenvalues --    0.07981   0.08228   0.09947   0.11482   0.12590
 Alpha virt. eigenvalues --    0.15426   0.16192   0.16562   0.17157   0.17639

 Mulliken charges:
               1
     1  S    1.251148
     2  O   -0.679102
     3  O   -0.678950
     4  N   -1.001071
     5  H    0.487611
     6  C   -0.780734
     7  H    0.302505
     8  H    0.308488
     9  H    0.302517
    10  H    0.487589
 Sum of Mulliken charges =  -0.00000

 Dipole moment (field-independent basis, Debye):
    X=              3.1826    Y=              7.7169    Z=              0.0021  Tot=              8.3474
 Quadrupole moment (field-independent basis, Debye-Ang):
   XX=            -34.4739   YY=            -34.1458   ZZ=            -42.8625
   XY=             -2.5168   XZ=             -0.0006   YZ=              0.0070

  Exact polarizability:      60.126      -0.342      57.585       0.002      -0.003      61.310
 Approx polarizability:      50.024      -0.641      50.360       0.004      -0.004      56.406

                      1                      2                      3
                      A                      A                      A
 Frequencies --    233.3907               266.3169               287.7171
 Red. masses --      1.0402                 1.3419                 2.9170
 Frc consts  --      0.0334                 0.0561                 0.1423
 IR Inten    --      0.6103                32.0040                24.1339

                      4                      5                      6
                      A                      A                      A
 Frequencies --    352.1902               433.1319               472.6198
 Red. masses --      2.5053                 3.1806                 8.4707
 Frc consts  --      0.1831                 0.3516                 1.1148
 IR Inten    --      5.4312                33.5114                63.7295

                      7                      8                      9
                      A                      A                      A
 Frequencies --    499.1875               695.5418               788.8291
 Red. masses --      5.9349                 2.2842                 3.1464
 Frc consts  --      0.8713                 0.6511                 1.1535
 IR Inten    --     46.1840               265.5196               330.4085

                     10                     11                     12
                      A                      A                      A
 Frequencies --    872.9223               998.8271              1012.4706
 Red. masses --      2.6154                 1.2858                 1.5137
 Frc consts  --      1.1742                 0.7558                 0.9142
 IR Inten    --     43.5345                 1.7070                36.2301

                     13                     14                     15
                      A                      A                      A
 Frequencies --   1127.3723              1139.1208              1295.0426
 Red. masses --      1.3139                11.3529                 8.4457
 Frc consts  --      0.9839                 8.6796                 8.3455
 IR Inten    --      8.4761               393.0252               647.5600

                     16                     17                     18
                      A                      A                      A
 Frequencies --   1381.1377              1452.3478              1452.7447
 Red. masses --      1.2119                 1.0446                 1.0482
 Frc consts  --      1.3620                 1.2982                 1.3033
 IR Inten    --     20.0137                13.2451                 6.0718

                     19                     20                     21
                      A                      A                      A
 Frequencies --   1595.9155              3109.2085              3215.9147
 Red. masses --      1.0989                 1.0299                 1.1079
 Frc consts  --      1.6490                 5.8660                 6.7509
 IR Inten    --    109.1554                 2.3827                 5.7407

                     22                     23                     24
                      A                      A                      A
 Frequencies --   3225.9867              3495.3613              3595.2815
 Red. masses --      1.1091                 1.0488                 1.0988
 Frc consts  --      6.8005                 7.5494                 8.3681
 IR Inten    --      3.8087               133.2526               153.2772

 - Thermochemistry -
 -------------------
 Temperature   298.150 Kelvin.  Pressure   1.00000 Atm.
 Atom     1 has atomic number 16 and mass  31.97207

 Molecular mass:    95.00410 amu.
 Principal axes and moments of inertia in atomic units:
                           1         2         3
     Eigenvalues --   382.09328 417.59420 420.13520
           X            0.99999  -0.00025   0.00344
           Y           -0.00344  -0.00466   0.99998
           Z            0.00024   0.99999   0.00466
 This molecule is an asymmetric top.
 Rotational symmetry number  1.
 Rotational temperatures (Kelvin)      0.22668     0.20741     0.20616
 Rotational constants (GHZ):           4.72330     4.32176     4.29562
 Zero-point vibrational energy     197375.3 (Joules/Mol)
                                   47.17384 (Kcal/Mol)
 Warning -- explicit consideration of   7 degrees of freedom as
           vibrations may cause significant error
 Vibrational temperatures:    335.80   383.17   413.96   506.72   623.18
          (Kelvin)            679.99   718.22  1000.73  1134.95  1255.94
                             1437.09  1456.72  1622.04  1638.94  1863.28
                             1987.15  2089.60  2090.18  2296.17  4473.46
                             4626.98  4641.48  5029.05  5172.81

 Zero-point correction=                           0.075176 (Hartree/Particle)
 Thermal correction to Energy=                    0.080933
 Thermal correction to Enthalpy=                  0.081877
 Thermal correction to Gibbs Free Energy=         0.046390
 Sum of electronic and zero-point Energies=           -644.255598
 Sum of electronic and thermal Energies=              -644.249842
 Sum of electronic and thermal Enthalpies=            -644.248897
 Sum of electronic and thermal Free Energies=         -644.284384

                     E (Thermal)             CV                S
                      KCal/Mol        Cal/Mol-Kelvin    Cal/Mol-Kelvin
 Total                   50.786             20.501             74.688
 Electronic               0.000              0.000              0.000
 Translational            0.889              2.981             39.565
 Rotational               0.889              2.981             25.708
 Vibrational             49.008             14.539              9.415
 Vibration     1          0.654              1.790              1.853
 Vibration     2          0.672              1.735              1.620
 Vibration     3          0.685              1.697              1.487
 Vibration     4          0.729              1.571              1.156
 Vibration     5          0.794              1.398              0.848
 Vibration     6          0.829              1.311              0.730
 Vibration     7          0.855              1.252              0.660

                           ! Non-Optimized Parameters !
 Normal termination of Gaussian 16 at Thu May 19 20:16:48 2022.
