 Gaussian 16, Revision C.01,
 Gaussian 16:  ES64L-G16RevC.01  3-Jul-2019

 -----------------------------------------------------
 #m062X/gen 6D OPT Freq=noraman SCRF=(SMD,Solvent=h2o)
 -----------------------------------------------------

 ----------------
 HA.12.smd.a1.smd
 ----------------
 Symbolic Z-matrix:
 Charge =  0 Multiplicity = 1

 SCF Done:  E(RM062X) =  -988.586365179     A.U. after   16 cycles
 Optimization completed.
    -- Stationary point found.
 Normal termination of Gaussian 16 at Wed Jun 29 12:05:13 2022.

 ------------------------------------------------------------------
 #N Geom=AllCheck Guess=TCheck SCRF=Check GenChk RM062X/ChkBas Freq
 ------------------------------------------------------------------

 Structure from the checkpoint file:  "/jobfs/48710059.gadi-pbs/Gau-1285641.chk"
 ----------------
 HA.12.smd.a1.smd
 ----------------
 Charge =  0 Multiplicity = 1

                         Standard orientation:
 ---------------------------------------------------------------------
 Center     Atomic      Atomic             Coordinates (Angstroms)
 Number     Number       Type             X           Y           Z
 ---------------------------------------------------------------------
      1          6           0       -0.773771    0.000557   -0.103356
      2          6           0       -0.136753   -1.240084   -0.073010
      3          1           0       -0.710995   -2.161587   -0.087130
      4          6           0        1.250881   -1.270790   -0.030140
      5          1           0        1.771739   -2.222349   -0.008610
      6          6           0        1.985142   -0.078424   -0.017942
      7          6           0        3.484958   -0.154183    0.028678
      8          6           0        1.322778    1.152407   -0.048728
      9          1           0        1.879308    2.083601   -0.045365
     10          6           0       -0.068885    1.199417   -0.089969
     11          1           0       -0.589371    2.151053   -0.118516
     12         16           0       -2.555282    0.044721   -0.108515
     13          8           0       -2.972738    1.375818   -0.545520
     14          8           0       -3.033010   -1.135915   -0.827191
     15          7           0       -3.082900   -0.120108    1.445959
     16          1           0       -2.758267    0.645533    2.040375
     17          1           0       -2.817322   -1.023488    1.844096
     18          8           0        4.038039   -1.246229    0.022145
     19          6           0        4.274929    1.120902    0.084792
     20          1           0        3.985625    1.708472    0.962476
     21          1           0        4.071365    1.729990   -0.802462
     22          1           0        5.338734    0.885791    0.132242
 ---------------------------------------------------------------------

 SCF Done:  E(RM062X) =  -988.586365179     A.U. after    1 cycles

 The electronic state is 1-A.
 Alpha  occ. eigenvalues --  -90.18399 -19.66414 -19.66368 -19.65805 -14.80436
 Alpha  occ. eigenvalues --  -10.66171 -10.60810 -10.58376 -10.58367 -10.58357
 Alpha  occ. eigenvalues --  -10.57935 -10.57703 -10.54450  -8.49397  -6.41593
 Alpha  occ. eigenvalues --   -6.41586  -6.41458  -1.26358  -1.18440  -1.14911
 Alpha  occ. eigenvalues --   -1.03373  -0.99445  -0.90217  -0.87217  -0.84125
 Alpha  occ. eigenvalues --   -0.77929  -0.71758  -0.71003  -0.64889  -0.64528
 Alpha  occ. eigenvalues --   -0.61723  -0.59994  -0.57338  -0.56360  -0.54105
 Alpha  occ. eigenvalues --   -0.53589  -0.52405  -0.51327  -0.50715  -0.48913
 Alpha  occ. eigenvalues --   -0.46965  -0.45042  -0.44043  -0.43750  -0.42663
 Alpha  occ. eigenvalues --   -0.42263  -0.40710  -0.40328  -0.38522  -0.34512
 Alpha  occ. eigenvalues --   -0.33314  -0.33120
 Alpha virt. eigenvalues --   -0.05158  -0.00011   0.01168   0.02820   0.03755
 Alpha virt. eigenvalues --    0.03868   0.04139   0.04712   0.04844   0.05697
 Alpha virt. eigenvalues --    0.06430   0.06856   0.07210   0.08556   0.08797

 Mulliken charges:
               1
     1  C   -1.013813
     2  C   -0.185761
     3  H    0.286386
     4  C    0.379525
     5  H    0.277681
     6  C    0.417019
     7  C    0.775847
     8  C   -0.563339
     9  H    0.273183
    10  C   -0.655864
    11  H    0.289153
    12  S    1.586101
    13  O   -0.644897
    14  O   -0.614285
    15  N   -0.999189
    16  H    0.506166
    17  H    0.505322
    18  O   -0.536614
    19  C   -0.897428
    20  H    0.276502
    21  H    0.278324
    22  H    0.259979
 Sum of Mulliken charges =  -0.00000

 Dipole moment (field-independent basis, Debye):
    X=              4.2679    Y=              3.1313    Z=              5.6264  Tot=              7.7250
 Quadrupole moment (field-independent basis, Debye-Ang):
   XX=           -113.9928   YY=            -80.9691   ZZ=            -79.6960
   XY=             18.3470   XZ=            -14.6593   YZ=             -1.0162

  Exact polarizability:     230.226      -7.147     194.086      -0.621       0.034     115.519
 Approx polarizability:     182.149      -6.651     176.565       0.597       0.275     105.025

                      1                      2                      3
                      A                      A                      A
 Frequencies --     33.5815                39.6169                67.1133
 Red. masses --      5.1508                 3.9841                 6.3048
 Frc consts  --      0.0034                 0.0037                 0.0167
 IR Inten    --      9.1232                 6.8398                11.9713

                      4                      5                      6
                      A                      A                      A
 Frequencies --    135.2690               173.6713               195.2807
 Red. masses --      6.8065                 4.9809                 1.0354
 Frc consts  --      0.0734                 0.0885                 0.0233
 IR Inten    --     14.4669                10.7674                 0.4440

                      7                      8                      9
                      A                      A                      A
 Frequencies --    232.3609               248.7687               290.9071
 Red. masses --      4.0560                 9.1707                 1.4668
 Frc consts  --      0.1290                 0.3344                 0.0731
 IR Inten    --     13.0103                 1.0183                28.5548

                     10                     11                     12
                      A                      A                      A
 Frequencies --    315.4700               393.0722               409.3218
 Red. masses --      4.9784                 3.1332                 2.8432
 Frc consts  --      0.2919                 0.2852                 0.2807
 IR Inten    --      9.5231                11.7198                 0.2938

                     13                     14                     15
                      A                      A                      A
 Frequencies --    424.2142               447.6668               458.5245
 Red. masses --      3.5950                 5.2267                 4.9474
 Frc consts  --      0.3812                 0.6171                 0.6129
 IR Inten    --      9.9328                16.3817                26.3078

                     16                     17                     18
                      A                      A                      A
 Frequencies --    494.3222               525.1045               583.0919
 Red. masses --      5.3602                 4.8866                 6.8211
 Frc consts  --      0.7717                 0.7939                 1.3664
 IR Inten    --     34.4752                92.8064                23.2522

                     19                     20                     21
                      A                      A                      A
 Frequencies --    603.9572               636.3802               643.2047
 Red. masses --      2.3121                 7.0127                 4.4308
 Frc consts  --      0.4969                 1.6733                 1.0800
 IR Inten    --     54.8121                 0.3807                93.8159

                     22                     23                     24
                      A                      A                      A
 Frequencies --    731.8280               742.3476               799.0876
 Red. masses --      2.4072                 3.6232                 4.8107
 Frc consts  --      0.7596                 1.1764                 1.8099
 IR Inten    --    692.9121                65.7559               145.5713

                     25                     26                     27
                      A                      A                      A
 Frequencies --    856.9051               866.3184               900.2284
 Red. masses --      1.4453                 1.2649                 2.4427
 Frc consts  --      0.6253                 0.5593                 1.1663
 IR Inten    --    104.8879                 6.5735                14.6823

                     28                     29                     30
                      A                      A                      A
 Frequencies --    988.4858              1004.7410              1020.5972
 Red. masses --      2.0663                 1.3526                 1.3867
 Frc consts  --      1.1896                 0.8045                 0.8510
 IR Inten    --     34.0427                 1.1064                 0.2875

                     31                     32                     33
                      A                      A                      A
 Frequencies --   1026.8713              1051.9544              1108.0264
 Red. masses --      3.4217                 1.9212                 3.5801
 Frc consts  --      2.1258                 1.2526                 2.5897
 IR Inten    --     17.8503                 4.1335                23.5498

                     34                     35                     36
                      A                      A                      A
 Frequencies --   1112.3564              1132.4689              1141.0520
 Red. masses --      2.7938                 1.2555                 1.2888
 Frc consts  --      2.0367                 0.9487                 0.9887
 IR Inten    --     97.9228                 4.7985                14.6014

                     37                     38                     39
                      A                      A                      A
 Frequencies --   1158.7694              1200.7431              1300.7933
 Red. masses --      4.7448                 1.1888                 3.0039
 Frc consts  --      3.7537                 1.0099                 2.9947
 IR Inten    --    406.5879                54.8403               257.3696

                     40                     41                     42
                      A                      A                      A
 Frequencies --   1307.8367              1329.0120              1347.8216
 Red. masses --     10.5572                 1.2823                 8.9141
 Frc consts  --     10.6392                 1.3344                 9.5409
 IR Inten    --    582.0590                 8.3935                13.9727

                     43                     44                     45
                      A                      A                      A
 Frequencies --   1404.5551              1445.7761              1471.6576
 Red. masses --      1.4510                 3.2793                 1.0689
 Frc consts  --      1.6866                 4.0386                 1.3640
 IR Inten    --     81.1181                90.1850                34.8556

                     46                     47                     48
                      A                      A                      A
 Frequencies --   1473.9801              1540.6541              1593.4377
 Red. masses --      1.0448                 2.4326                 1.0975
 Frc consts  --      1.3374                 3.4019                 1.6419
 IR Inten    --     19.8573                11.7279               107.4408

                     49                     50                     51
                      A                      A                      A
 Frequencies --   1657.2232              1679.1953              1766.1608
 Red. masses --      7.5058                 6.3267                11.0071
 Frc consts  --     12.1453                10.5107                20.2295
 IR Inten    --     26.6907                20.5635               619.7852

                     52                     53                     54
                      A                      A                      A
 Frequencies --   3093.2465              3163.6819              3206.7505
 Red. masses --      1.0373                 1.1006                 1.1042
 Frc consts  --      5.8479                 6.4905                 6.6899
 IR Inten    --      0.7542                 0.4721                12.8767

                     55                     56                     57
                      A                      A                      A
 Frequencies --   3246.1579              3252.2347              3258.7623
 Red. masses --      1.0904                 1.0898                 1.0949
 Frc consts  --      6.7699                 6.7914                 6.8507
 IR Inten    --      2.0880                 1.6306                 0.3778

                     58                     59                     60
                      A                      A                      A
 Frequencies --   3262.2827              3495.2986              3595.1165
 Red. masses --      1.0958                 1.0485                 1.0984
 Frc consts  --      6.8712                 7.5469                 8.3644
 IR Inten    --      0.8315               139.6735               155.2501

 - Thermochemistry -
 -------------------
 Temperature   298.150 Kelvin.  Pressure   1.00000 Atm.
 Atom     1 has atomic number  6 and mass  12.00000

 Molecular mass:   199.03032 amu.
 Principal axes and moments of inertia in atomic units:
                           1         2         3
     Eigenvalues --   871.181095321.552805800.60035
           X            0.99985   0.01597  -0.00671
           Y           -0.01599   0.99987  -0.00294
           Z            0.00666   0.00305   0.99997
 This molecule is an asymmetric top.
 Rotational symmetry number  1.
 Warning -- assumption of classical behavior for rotation
           may cause significant error
 Rotational temperatures (Kelvin)      0.09942     0.01628     0.01493
 Rotational constants (GHZ):           2.07160     0.33914     0.31113
 Zero-point vibrational energy     437147.3 (Joules/Mol)
                                  104.48070 (Kcal/Mol)
 Warning -- explicit consideration of  19 degrees of freedom as
           vibrations may cause significant error
 Vibrational temperatures:     48.32    57.00    96.56   194.62   249.87
          (Kelvin)            280.97   334.32   357.92   418.55   453.89
                              565.54   588.92   610.35   644.09   659.71
                              711.22   755.51   838.94   868.96   915.61
                              925.43  1052.94  1068.07  1149.71  1232.90
                             1246.44  1295.23  1422.21  1445.60  1468.41
                             1477.44  1513.53  1594.20  1600.43  1629.37
                             1641.72  1667.21  1727.60  1871.55  1881.69
                             1912.15  1939.21  2020.84  2080.15  2117.39
                             2120.73  2216.66  2292.60  2384.37  2415.99
                             2541.11  4450.49  4551.83  4613.80  4670.50
                             4679.24  4688.63  4693.70  5028.96  5172.57

 Zero-point correction=                           0.166501 (Hartree/Particle)
 Thermal correction to Energy=                    0.178832
 Thermal correction to Enthalpy=                  0.179777
 Thermal correction to Gibbs Free Energy=         0.126619
 Sum of electronic and zero-point Energies=           -988.419865
 Sum of electronic and thermal Energies=              -988.407533
 Sum of electronic and thermal Enthalpies=            -988.406589
 Sum of electronic and thermal Free Energies=         -988.459747

                     E (Thermal)             CV                S
                      KCal/Mol        Cal/Mol-Kelvin    Cal/Mol-Kelvin
 Total                  112.219             46.126            111.880
 Electronic               0.000              0.000              0.000
 Translational            0.889              2.981             41.770
 Rotational               0.889              2.981             31.664
 Vibrational            110.442             40.164             38.446
 Vibration     1          0.594              1.983              5.606
 Vibration     2          0.594              1.981              5.278
 Vibration     3          0.598              1.970              4.236
 Vibration     4          0.613              1.918              2.870
 Vibration     5          0.627              1.875              2.395
 Vibration     6          0.636              1.846              2.177
 Vibration     7          0.653              1.791              1.861
 Vibration     8          0.662              1.765              1.739
 Vibration     9          0.687              1.691              1.469
 Vibration    10          0.703              1.644              1.333
 Vibration    11          0.760              1.485              0.988
 Vibration    12          0.774              1.450              0.929
 Vibration    13          0.786              1.418              0.878
 Vibration    14          0.807              1.366              0.803
 Vibration    15          0.817              1.342              0.770
 Vibration    16          0.850              1.263              0.672
 Vibration    17          0.880              1.194              0.598
 Vibration    18          0.940              1.068              0.480
 Vibration    19          0.962              1.023              0.443

 Optimization completed.
    -- Stationary point found.
 Normal termination of Gaussian 16 at Wed Jun 29 12:10:22 2022.
