 Gaussian 16, Revision C.01,
 Gaussian 16:  ES64L-G16RevC.01  3-Jul-2019

 -----------------------------------------------------
 #m062X/gen 6D OPT Freq=noraman SCRF=(SMD,Solvent=h2o)
 -----------------------------------------------------

 ------------------
 HA.10.smd.a3c3.smd
 ------------------
 Symbolic Z-matrix:
 Charge =  0 Multiplicity = 1

 SCF Done:  E(RM062X) =  -930.603174784     A.U. after   15 cycles
 SCF Done:  E(RM062X) =  -930.609406782     A.U. after   14 cycles
 SCF Done:  E(RM062X) =  -930.616910182     A.U. after   17 cycles
 SCF Done:  E(RM062X) =  -930.621428557     A.U. after   15 cycles
 SCF Done:  E(RM062X) =  -930.623151783     A.U. after   13 cycles
 SCF Done:  E(RM062X) =  -930.624011675     A.U. after   14 cycles
 SCF Done:  E(RM062X) =  -930.624397573     A.U. after   14 cycles
 SCF Done:  E(RM062X) =  -930.624773329     A.U. after   14 cycles
 SCF Done:  E(RM062X) =  -930.625066050     A.U. after   13 cycles
 SCF Done:  E(RM062X) =  -930.625289192     A.U. after   14 cycles
 SCF Done:  E(RM062X) =  -930.625752866     A.U. after   13 cycles
 SCF Done:  E(RM062X) =  -930.625718292     A.U. after   14 cycles
 SCF Done:  E(RM062X) =  -930.625779651     A.U. after   13 cycles
 SCF Done:  E(RM062X) =  -930.625782033     A.U. after   12 cycles
 SCF Done:  E(RM062X) =  -930.625791979     A.U. after   13 cycles
 SCF Done:  E(RM062X) =  -930.625793658     A.U. after   11 cycles
 SCF Done:  E(RM062X) =  -930.625794569     A.U. after   12 cycles
 SCF Done:  E(RM062X) =  -930.625794937     A.U. after   11 cycles
 SCF Done:  E(RM062X) =  -930.625794955     A.U. after   10 cycles
 Optimization completed.
    -- Stationary point found.
 Normal termination of Gaussian 16 at Wed Jun 29 11:00:55 2022.

 ------------------------------------------------------------------
 #N Geom=AllCheck Guess=TCheck SCRF=Check GenChk RM062X/ChkBas Freq
 ------------------------------------------------------------------

 Structure from the checkpoint file:  "/jobfs/48676125.gadi-pbs/Gau-690620.chk"
 ------------------
 HA.10.smd.a3c3.smd
 ------------------
 Charge =  0 Multiplicity = 1

                         Standard orientation:
 ---------------------------------------------------------------------
 Center     Atomic      Atomic             Coordinates (Angstroms)
 Number     Number       Type             X           Y           Z
 ---------------------------------------------------------------------
      1          6           0        0.520753    0.047366    0.098788
      2          6           0       -0.058428    1.323687    0.080778
      3          1           0        0.563707    2.212888    0.130811
      4          6           0       -1.431293    1.446304    0.009933
      5          1           0       -1.890756    2.431111    0.003602
      6          6           0       -2.260410    0.299280   -0.048772
      7          7           0       -3.613111    0.446551   -0.148309
      8          6           0       -1.655209   -0.976285   -0.025251
      9          1           0       -2.264329   -1.872886   -0.056668
     10          6           0       -0.274110   -1.096926    0.039670
     11          1           0        0.180263   -2.083100    0.057231
     12         16           0        2.271800   -0.103432    0.124158
     13          8           0        2.827887    1.048813    0.840812
     14          8           0        2.615887   -1.456525    0.570897
     15          7           0        2.865485    0.017482   -1.421455
     16          1           0        2.655243    0.933267   -1.824555
     17          1           0        2.486504   -0.720183   -2.019066
     18          6           0       -4.524641   -0.667290    0.034004
     19          1           0       -3.975884    1.369703    0.055547
     20          1           0       -4.368396   -1.174565    0.994727
     21          1           0       -4.407704   -1.400850   -0.769209
     22          1           0       -5.544244   -0.283823    0.000820
 ---------------------------------------------------------------------

 SCF Done:  E(RM062X) =  -930.625794955     A.U. after    1 cycles

 The electronic state is 1-A.
 Alpha  occ. eigenvalues --  -90.17585 -19.65666 -19.65616 -14.79739 -14.78123
 Alpha  occ. eigenvalues --  -10.61045 -10.58353 -10.57566 -10.57505 -10.56863
 Alpha  occ. eigenvalues --  -10.55883 -10.55699  -8.48577  -6.40781  -6.40768
 Alpha  occ. eigenvalues --   -6.40626  -1.25437  -1.14019  -1.05544  -1.02486
 Alpha  occ. eigenvalues --   -0.96823  -0.86747  -0.85967  -0.79154  -0.74603
 Alpha  occ. eigenvalues --   -0.70739  -0.67955  -0.63605  -0.61368  -0.60808
 Alpha  occ. eigenvalues --   -0.58814  -0.56162  -0.53811  -0.52532  -0.51643
 Alpha  occ. eigenvalues --   -0.50312  -0.49590  -0.47678  -0.46007  -0.44626
 Alpha  occ. eigenvalues --   -0.43260  -0.41700  -0.41005  -0.40814  -0.39615
 Alpha  occ. eigenvalues --   -0.38226  -0.36671  -0.32381  -0.26068
 Alpha virt. eigenvalues --    0.00078   0.00966   0.01353   0.02698   0.03578
 Alpha virt. eigenvalues --    0.03971   0.04643   0.04848   0.05813   0.06089
 Alpha virt. eigenvalues --    0.06912   0.07418   0.08776   0.09197   0.09858

 Mulliken charges:
               1
     1  C   -0.689635
     2  C   -0.111426
     3  H    0.274281
     4  C   -0.770976
     5  H    0.256954
     6  C    0.432633
     7  N   -0.641796
     8  C    0.698727
     9  H    0.254467
    10  C   -0.890346
    11  H    0.274877
    12  S    1.524904
    13  O   -0.656687
    14  O   -0.666170
    15  N   -1.019160
    16  H    0.497712
    17  H    0.499977
    18  C   -0.457672
    19  H    0.469888
    20  H    0.233200
    21  H    0.242521
    22  H    0.243730
 Sum of Mulliken charges =  -0.00000

 Dipole moment (field-independent basis, Debye):
    X=            -10.9087    Y=              1.6428    Z=             -5.0986  Tot=             12.1530
 Quadrupole moment (field-independent basis, Debye-Ang):
   XX=            -78.4111   YY=            -73.8317   ZZ=            -78.7006
   XY=              0.7223   XZ=            -15.5536   YZ=              0.2078

  Exact polarizability:     248.218      -0.579     176.109       1.664       0.409     117.791
 Approx polarizability:     193.968      -1.705     157.866       3.449       0.637     104.696

                      1                      2                      3
                      A                      A                      A
 Frequencies --     38.1574                66.0296               109.4105
 Red. masses --      4.3554                 3.6839                 4.3873
 Frc consts  --      0.0037                 0.0095                 0.0309
 IR Inten    --      8.2679                25.6477                26.7768

                      4                      5                      6
                      A                      A                      A
 Frequencies --    147.6484               191.1423               234.5606
 Red. masses --      5.4718                 2.2613                 3.6830
 Frc consts  --      0.0703                 0.0487                 0.1194
 IR Inten    --      2.9411                28.3639                30.9365

                      7                      8                      9
                      A                      A                      A
 Frequencies --    244.2308               280.2470               294.8057
 Red. masses --      1.3946                 2.0008                 2.5183
 Frc consts  --      0.0490                 0.0926                 0.1290
 IR Inten    --      2.5035                28.6569                27.3815

                     10                     11                     12
                      A                      A                      A
 Frequencies --    341.0878               357.3401               403.1347
 Red. masses --      1.4493                 4.0596                 2.9095
 Frc consts  --      0.0993                 0.3054                 0.2786
 IR Inten    --    263.1897                18.8079                31.5737

                     13                     14                     15
                      A                      A                      A
 Frequencies --    427.7807               454.5241               481.6156
 Red. masses --      3.0023                 3.9621                 6.3250
 Frc consts  --      0.3237                 0.4823                 0.8644
 IR Inten    --      5.7240                44.8615                57.1412

                     16                     17                     18
                      A                      A                      A
 Frequencies --    500.1100               534.1444               570.6037
 Red. masses --      4.4060                 3.0355                 4.7506
 Frc consts  --      0.6493                 0.5103                 0.9113
 IR Inten    --     47.3091                98.0532               119.2174

                     19                     20                     21
                      A                      A                      A
 Frequencies --    637.2035               673.9483               723.9576
 Red. masses --      7.0214                 4.7179                 3.5405
 Frc consts  --      1.6797                 1.2626                 1.0933
 IR Inten    --      2.9679                20.0170                 8.5788

                     22                     23                     24
                      A                      A                      A
 Frequencies --    761.5095               836.0428               837.4020
 Red. masses --      3.0724                 2.1459                 1.8012
 Frc consts  --      1.0497                 0.8837                 0.7442
 IR Inten    --    892.1023                63.4865                32.5596

                     25                     26                     27
                      A                      A                      A
 Frequencies --    848.3082               899.0652               985.9599
 Red. masses --      1.7351                 1.9132                 1.2996
 Frc consts  --      0.7357                 0.9112                 0.7444
 IR Inten    --    130.1658                34.7260                 0.2423

                     28                     29                     30
                      A                      A                      A
 Frequencies --   1000.7391              1014.3964              1093.4358
 Red. masses --      1.3354                 3.4559                 2.5280
 Frc consts  --      0.7880                 2.0952                 1.7808
 IR Inten    --      0.0091                17.5591                28.2872

                     31                     32                     33
                      A                      A                      A
 Frequencies --   1107.6537              1133.3267              1138.6913
 Red. masses --      4.1184                 1.2823                 2.6079
 Frc consts  --      2.9770                 0.9704                 1.9923
 IR Inten    --    157.4337                21.7098               648.6731

                     34                     35                     36
                      A                      A                      A
 Frequencies --   1146.3999              1161.6401              1196.5072
 Red. masses --      1.5256                 1.3288                 1.6193
 Frc consts  --      1.1813                 1.0564                 1.3659
 IR Inten    --    134.7960                 6.1860                22.2896

                     37                     38                     39
                      A                      A                      A
 Frequencies --   1217.0295              1288.7899              1320.0283
 Red. masses --      1.2765                 9.1298                 1.7472
 Frc consts  --      1.1140                 8.9346                 1.7938
 IR Inten    --      5.5860               526.8487                40.2662

                     40                     41                     42
                      A                      A                      A
 Frequencies --   1339.2719              1386.1431              1457.8568
 Red. masses --      1.6907                 3.8079                 2.2800
 Frc consts  --      1.7868                 4.3108                 2.8551
 IR Inten    --     40.5494               237.8718                31.5938

                     43                     44                     45
                      A                      A                      A
 Frequencies --   1483.8776              1499.7761              1513.0537
 Red. masses --      1.2759                 1.0601                 1.7417
 Frc consts  --      1.6553                 1.4050                 2.3493
 IR Inten    --      8.7110                20.6549                 4.6986

                     46                     47                     48
                      A                      A                      A
 Frequencies --   1530.2022              1572.8949              1596.6501
 Red. masses --      1.1507                 2.9205                 1.0971
 Frc consts  --      1.5875                 4.2571                 1.6478
 IR Inten    --     43.1091               452.0197               102.7183

                     49                     50                     51
                      A                      A                      A
 Frequencies --   1644.7787              1666.1513              3070.3568
 Red. masses --      5.5160                 5.8475                 1.0437
 Frc consts  --      8.7920                 9.5642                 5.7968
 IR Inten    --     38.9723               615.0001                91.1468

                     52                     53                     54
                      A                      A                      A
 Frequencies --   3140.8618              3205.5155              3225.5211
 Red. masses --      1.0977                 1.1007                 1.0901
 Frc consts  --      6.3800                 6.6635                 6.6824
 IR Inten    --     43.7196                18.8059                 4.9193

                     55                     56                     57
                      A                      A                      A
 Frequencies --   3242.6058              3244.1646              3260.8865
 Red. masses --      1.0905                 1.0950                 1.0937
 Frc consts  --      6.7554                 6.7900                 6.8519
 IR Inten    --      0.0502                 1.3985                 2.7827

                     58                     59                     60
                      A                      A                      A
 Frequencies --   3495.4227              3593.0426              3626.5751
 Red. masses --      1.0491                 1.0971                 1.0782
 Frc consts  --      7.5523                 8.3452                 8.3552
 IR Inten    --    120.5899               136.0407               162.7731

 - Thermochemistry -
 -------------------
 Temperature   298.150 Kelvin.  Pressure   1.00000 Atm.
 Atom     1 has atomic number  6 and mass  12.00000

 Molecular mass:   186.04630 amu.
 Principal axes and moments of inertia in atomic units:
                           1         2         3
     Eigenvalues --   762.019874394.256524764.84028
           X            0.99992   0.00847  -0.00930
           Y           -0.00847   0.99996  -0.00046
           Z            0.00930   0.00054   0.99996
 This molecule is an asymmetric top.
 Rotational symmetry number  1.
 Warning -- assumption of classical behavior for rotation
           may cause significant error
 Rotational temperatures (Kelvin)      0.11366     0.01971     0.01818
 Rotational constants (GHZ):           2.36837     0.41070     0.37876
 Zero-point vibrational energy     457537.0 (Joules/Mol)
                                  109.35397 (Kcal/Mol)
 Warning -- explicit consideration of  18 degrees of freedom as
           vibrations may cause significant error
 Vibrational temperatures:     54.90    95.00   157.42   212.43   275.01
          (Kelvin)            337.48   351.39   403.21   424.16   490.75
                              514.13   580.02   615.48   653.96   692.94
                              719.55   768.51   820.97   916.79   969.66
                             1041.61  1095.64  1202.88  1204.83  1220.53
                             1293.55  1418.58  1439.84  1459.49  1573.21
                             1593.67  1630.60  1638.32  1649.41  1671.34
                             1721.51  1751.03  1854.28  1899.23  1926.91
                             1994.35  2097.53  2134.97  2157.84  2176.95
                             2201.62  2263.05  2297.22  2366.47  2397.22
                             4417.56  4519.00  4612.02  4640.81  4665.39
                             4667.63  4691.69  5029.13  5169.59  5217.83

 Zero-point correction=                           0.174267 (Hartree/Particle)
 Thermal correction to Energy=                    0.186056
 Thermal correction to Enthalpy=                  0.187000
 Thermal correction to Gibbs Free Energy=         0.136014
 Sum of electronic and zero-point Energies=           -930.451528
 Sum of electronic and thermal Energies=              -930.439739
 Sum of electronic and thermal Enthalpies=            -930.438795
 Sum of electronic and thermal Free Energies=         -930.489781

                     E (Thermal)             CV                S
                      KCal/Mol        Cal/Mol-Kelvin    Cal/Mol-Kelvin
 Total                  116.752             44.525            107.308
 Electronic               0.000              0.000              0.000
 Translational            0.889              2.981             41.569
 Rotational               0.889              2.981             31.146
 Vibrational            114.974             38.564             34.594
 Vibration     1          0.594              1.982              5.353
 Vibration     2          0.597              1.970              4.268
 Vibration     3          0.606              1.942              3.279
 Vibration     4          0.617              1.905              2.702
 Vibration     5          0.634              1.852              2.217
 Vibration     6          0.654              1.788              1.844
 Vibration     7          0.660              1.772              1.772
 Vibration     8          0.680              1.710              1.532
 Vibration     9          0.689              1.683              1.446
 Vibration    10          0.721              1.593              1.207
 Vibration    11          0.733              1.560              1.134
 Vibration    12          0.769              1.463              0.951
 Vibration    13          0.789              1.410              0.866
 Vibration    14          0.813              1.351              0.782
 Vibration    15          0.838              1.291              0.706
 Vibration    16          0.856              1.250              0.658
 Vibration    17          0.889              1.174              0.578
 Vibration    18          0.927              1.095              0.503

 Optimization completed.
    -- Stationary point found.
 Normal termination of Gaussian 16 at Wed Jun 29 11:05:21 2022.
