 Gaussian 16, Revision C.01,
 Gaussian 16:  ES64L-G16RevC.01  3-Jul-2019

 ----------------------------------------------------------------------
 #m062X/gen 6D OPT Freq=Noraman INT(grid=ultrafine) SCRF=(SMD,Solvent=h
 2o)
 ----------------------------------------------------------------------

 -----
 a3 b1
 -----
 Symbolic Z-matrix:
 Charge =  0 Multiplicity = 1

 SCF Done:  E(RM062X) =  -835.990239308     A.U. after   14 cycles
 SCF Done:  E(RM062X) =  -835.990846456     A.U. after   13 cycles
 SCF Done:  E(RM062X) =  -835.991107399     A.U. after   13 cycles
 SCF Done:  E(RM062X) =  -835.991558424     A.U. after   15 cycles
 SCF Done:  E(RM062X) =  -835.991778251     A.U. after   12 cycles
 SCF Done:  E(RM062X) =  -835.992201630     A.U. after   15 cycles
 SCF Done:  E(RM062X) =  -835.992350984     A.U. after   12 cycles
 SCF Done:  E(RM062X) =  -835.990781104     A.U. after   15 cycles
 SCF Done:  E(RM062X) =  -835.991732813     A.U. after   15 cycles
 SCF Done:  E(RM062X) =  -835.992441753     A.U. after   12 cycles
 SCF Done:  E(RM062X) =  -835.990814106     A.U. after   15 cycles
 SCF Done:  E(RM062X) =  -835.992487748     A.U. after   15 cycles
 SCF Done:  E(RM062X) =  -835.992019351     A.U. after   15 cycles
 SCF Done:  E(RM062X) =  -835.992708201     A.U. after   12 cycles
 SCF Done:  E(RM062X) =  -835.992722874     A.U. after   14 cycles
 SCF Done:  E(RM062X) =  -835.992731790     A.U. after   13 cycles
 SCF Done:  E(RM062X) =  -835.992733503     A.U. after   11 cycles
 SCF Done:  E(RM062X) =  -835.992733740     A.U. after   10 cycles
 SCF Done:  E(RM062X) =  -835.992733758     A.U. after    8 cycles
 Optimization completed.
    -- Stationary point found.
 Normal termination of Gaussian 16 at Thu May 19 13:20:04 2022.

 ------------------------------------------------------------------
 #N Geom=AllCheck Guess=TCheck SCRF=Check GenChk RM062X/ChkBas Freq
 ------------------------------------------------------------------

 Structure from the checkpoint file:  "/jobfs/40638385.gadi-pbs/Gau-1564646.chk"
 -----
 a3 b1
 -----
 Charge =  0 Multiplicity = 1

                         Standard orientation:
 ---------------------------------------------------------------------
 Center     Atomic      Atomic             Coordinates (Angstroms)
 Number     Number       Type             X           Y           Z
 ---------------------------------------------------------------------
      1          6           0        0.315099   -0.000002    0.089231
      2          6           0        0.986165   -1.220921    0.048626
      3          1           0        0.436972   -2.156869    0.083165
      4          6           0        2.377181   -1.211692   -0.027881
      5          1           0        2.919182   -2.151639   -0.054156
      6          6           0        3.068647    0.000017   -0.066111
      7          1           0        4.152898    0.000013   -0.124011
      8          6           0        2.377176    1.211707   -0.027854
      9          1           0        2.919148    2.151671   -0.054106
     10          6           0        0.986148    1.220914    0.048655
     11          1           0        0.436950    2.156861    0.083209
     12         16           0       -1.462208   -0.000017    0.128285
     13          8           0       -1.906266   -1.263961    0.716987
     14          8           0       -1.906300    1.263849    0.717138
     15          7           0       -2.024333    0.000089   -1.426457
     16          1           0       -1.730623   -0.838991   -1.931339
     17          1           0       -1.730838    0.839371   -1.931129
 ---------------------------------------------------------------------

 SCF Done:  E(RM062X) =  -835.992733758     A.U. after    1 cycles

 The electronic state is 1-A.
 Alpha  occ. eigenvalues --  -90.18083 -19.66144 -19.66143 -14.80205 -10.59980
 Alpha  occ. eigenvalues --  -10.57826 -10.57824 -10.56924 -10.56782 -10.56761
 Alpha  occ. eigenvalues --   -8.49092  -6.41290  -6.41282  -6.41146  -1.26047
 Alpha  occ. eigenvalues --   -1.14613  -1.03083  -0.98433  -0.87971  -0.86268
 Alpha  occ. eigenvalues --   -0.76863  -0.70770  -0.69151  -0.64018  -0.61425
 Alpha  occ. eigenvalues --   -0.60206  -0.56820  -0.55116  -0.52772  -0.52593
 Alpha  occ. eigenvalues --   -0.50498  -0.46592  -0.44671  -0.43601  -0.42261
 Alpha  occ. eigenvalues --   -0.41836  -0.40549  -0.40077  -0.38038  -0.32613
 Alpha  occ. eigenvalues --   -0.32475
 Alpha virt. eigenvalues --   -0.01509   0.00492   0.01306   0.03535   0.03959
 Alpha virt. eigenvalues --    0.04069   0.05397   0.05521   0.06334   0.07982
 Alpha virt. eigenvalues --    0.08207   0.08399   0.09210   0.09765   0.11239

 Mulliken charges:
               1
     1  C   -0.550544
     2  C   -0.123444
     3  H    0.279891
     4  C   -0.189087
     5  H    0.262460
     6  C   -0.243834
     7  H    0.259846
     8  C   -0.189089
     9  H    0.262461
    10  C   -0.123439
    11  H    0.279889
    12  S    1.404987
    13  O   -0.662335
    14  O   -0.662351
    15  N   -1.005806
    16  H    0.500201
    17  H    0.500194
 Sum of Mulliken charges =  -0.00000

 Dipole moment (field-independent basis, Debye):
    X=              7.1162    Y=              0.0006    Z=             -5.7837  Tot=              9.1701
 Quadrupole moment (field-independent basis, Debye-Ang):
   XX=            -69.2066   YY=            -62.4720   ZZ=            -64.4883
   XY=             -0.0014   XZ=              8.5173   YZ=             -0.0008

  Exact polarizability:     171.998      -0.000     154.856      -0.763       0.001      93.578
 Approx polarizability:     142.195      -0.000     141.828      -1.815       0.001      84.674

                      1                      2                      3
                      A                      A                      A
 Frequencies --     26.6347               119.8578               189.4147
 Red. masses --      4.5141                 4.5622                 5.9659
 Frc consts  --      0.0019                 0.0386                 0.1261
 IR Inten    --      5.6875                13.0003                 7.7343

                      4                      5                      6
                      A                      A                      A
 Frequencies --    275.8829               283.3321               317.3328
 Red. masses --      3.9658                 1.4085                 8.9752
 Frc consts  --      0.1778                 0.0666                 0.5325
 IR Inten    --     10.2917                31.1541                 9.4933

                      7                      8                      9
                      A                      A                      A
 Frequencies --    396.3949               409.0970               445.7460
 Red. masses --      3.0271                 2.8650                 5.9198
 Frc consts  --      0.2802                 0.2825                 0.6930
 IR Inten    --     10.9961                 0.0417                 9.6770

                     10                     11                     12
                      A                      A                      A
 Frequencies --    455.9173               529.3261               571.2295
 Red. masses --      4.0592                 4.7857                 8.8815
 Frc consts  --      0.4971                 0.7900                 1.7075
 IR Inten    --     27.5801               119.2632               118.2147

                     13                     14                     15
                      A                      A                      A
 Frequencies --    620.1470               700.2440               708.2419
 Red. masses --      6.4061                 2.2003                 3.5988
 Frc consts  --      1.4516                 0.6357                 1.0636
 IR Inten    --      0.0053               103.0540                83.1730

                     16                     17                     18
                      A                      A                      A
 Frequencies --    766.2846               773.5002               869.0832
 Red. masses --      3.0576                 1.5844                 1.2486
 Frc consts  --      1.0578                 0.5585                 0.5556
 IR Inten    --    684.4186                76.7145                 0.0414

                     19                     20                     21
                      A                      A                      A
 Frequencies --    895.1836               962.7497              1011.2551
 Red. masses --      2.2120                 1.3580                 6.3010
 Frc consts  --      1.0444                 0.7416                 3.7965
 IR Inten    --     30.6976                 1.0253                 7.8995

                     22                     23                     24
                      A                      A                      A
 Frequencies --   1015.9945              1041.8410              1055.7193
 Red. masses --      1.3775                 1.3272                 2.6350
 Frc consts  --      0.8377                 0.8488                 1.7304
 IR Inten    --      0.0004                 0.0845                 9.4080

                     25                     26                     27
                      A                      A                      A
 Frequencies --   1107.5528              1113.0810              1126.6525
 Red. masses --      3.8901                 1.4542                 1.2615
 Frc consts  --      2.8115                 1.0615                 0.9435
 IR Inten    --    104.6211                11.5975                11.9514

                     28                     29                     30
                      A                      A                      A
 Frequencies --   1155.1155              1174.9971              1196.7569
 Red. masses --      4.9993                 1.0975                 1.1812
 Frc consts  --      3.9301                 0.8928                 0.9967
 IR Inten    --    402.8597                 1.3319                10.7504

                     31                     32                     33
                      A                      A                      A
 Frequencies --   1301.5706              1336.6657              1351.0332
 Red. masses --     10.7693                 1.7599                 3.0309
 Frc consts  --     10.7491                 1.8526                 3.2595
 IR Inten    --    562.0684                 4.1406                 1.9399

                     34                     35                     36
                      A                      A                      A
 Frequencies --   1492.9437              1524.3938              1591.6375
 Red. masses --      2.3420                 2.1880                 1.0980
 Frc consts  --      3.0756                 2.9956                 1.6389
 IR Inten    --     38.2730                 5.8638               107.4147

                     37                     38                     39
                      A                      A                      A
 Frequencies --   1664.8890              1668.9152              3235.7355
 Red. masses --      6.0273                 6.4513                 1.0877
 Frc consts  --      9.8434                10.5868                 6.7096
 IR Inten    --      5.2401                 0.4528                 1.0026

                     40                     41                     42
                      A                      A                      A
 Frequencies --   3242.6814              3246.6408              3252.6110
 Red. masses --      1.0895                 1.0929                 1.0961
 Frc consts  --      6.7495                 6.7871                 6.8320
 IR Inten    --      5.8785                 0.2363                 1.8727

                     43                     44                     45
                      A                      A                      A
 Frequencies --   3256.8921              3489.1964              3587.8553
 Red. masses --      1.0992                 1.0491                 1.0983
 Frc consts  --      6.8699                 7.5252                 8.3299
 IR Inten    --     10.4779               132.2423               148.2686

 - Thermochemistry -
 -------------------
 Temperature   298.150 Kelvin.  Pressure   1.00000 Atm.
 Atom     1 has atomic number  6 and mass  12.00000

 Molecular mass:   157.01975 amu.
 Principal axes and moments of inertia in atomic units:
                           1         2         3
     Eigenvalues --   697.526412174.543262492.93481
           X            0.99994  -0.00000   0.01128
           Y            0.00000   1.00000  -0.00000
           Z           -0.01128   0.00000   0.99994
 This molecule is an asymmetric top.
 Rotational symmetry number  1.
 Warning -- assumption of classical behavior for rotation
           may cause significant error
 Rotational temperatures (Kelvin)      0.12417     0.03983     0.03474
 Rotational constants (GHZ):           2.58734     0.82994     0.72394
 Zero-point vibrational energy     338293.3 (Joules/Mol)
                                   80.85404 (Kcal/Mol)
 Warning -- explicit consideration of  13 degrees of freedom as
           vibrations may cause significant error
 Vibrational temperatures:     38.32   172.45   272.53   396.93   407.65
          (Kelvin)            456.57   570.32   588.60   641.33   655.96
                              761.58   821.87   892.25  1007.49  1019.00
                             1102.51  1112.89  1250.42  1287.97  1385.18
                             1454.97  1461.79  1498.98  1518.94  1593.52
                             1601.48  1621.00  1661.95  1690.56  1721.87
                             1872.67  1923.16  1943.84  2148.01  2193.26
                             2290.01  2395.40  2401.20  4655.50  4665.50
                             4671.19  4679.78  4685.94  5020.18  5162.12

 Zero-point correction=                           0.128849 (Hartree/Particle)
 Thermal correction to Energy=                    0.137661
 Thermal correction to Enthalpy=                  0.138605
 Thermal correction to Gibbs Free Energy=         0.094032
 Sum of electronic and zero-point Energies=           -835.863885
 Sum of electronic and thermal Energies=              -835.855073
 Sum of electronic and thermal Enthalpies=            -835.854128
 Sum of electronic and thermal Free Energies=         -835.898701

                     E (Thermal)             CV                S
                      KCal/Mol        Cal/Mol-Kelvin    Cal/Mol-Kelvin
 Total                   86.384             33.756             93.812
 Electronic               0.000              0.000              0.000
 Translational            0.889              2.981             41.063
 Rotational               0.889              2.981             29.715
 Vibrational             84.606             27.795             23.034
 Vibration     1          0.593              1.984              6.065
 Vibration     2          0.609              1.933              3.103
 Vibration     3          0.633              1.854              2.234
 Vibration     4          0.678              1.718              1.559
 Vibration     5          0.682              1.705              1.513
 Vibration     6          0.704              1.640              1.324
 Vibration     7          0.763              1.478              0.976
 Vibration     8          0.773              1.450              0.930
 Vibration     9          0.805              1.370              0.809
 Vibration    10          0.814              1.348              0.778
 Vibration    11          0.884              1.185              0.589
 Vibration    12          0.927              1.093              0.502
 Vibration    13          0.980              0.989              0.416

 Optimization completed.
    -- Stationary point found.
 Normal termination of Gaussian 16 at Thu May 19 13:22:56 2022.
