 Gaussian 16, Revision C.01,
 Gaussian 16:  ES64L-G16RevC.01  3-Jul-2019

 -----------------------------------------------------
 #m062X/gen 6D OPT Freq=noraman SCRF=(SMD,Solvent=h2o)
 -----------------------------------------------------

 ------------------
 HA.13.smd.a2d3.smd
 ------------------
 Symbolic Z-matrix:
 Charge =  0 Multiplicity = 1

 SCF Done:  E(RM062X) =  -1063.78714743     A.U. after   15 cycles
 SCF Done:  E(RM062X) =  -1063.78936381     A.U. after   15 cycles
 SCF Done:  E(RM062X) =  -1063.79116844     A.U. after   17 cycles
 SCF Done:  E(RM062X) =  -1063.79274616     A.U. after   14 cycles
 SCF Done:  E(RM062X) =  -1063.79359258     A.U. after   13 cycles
 SCF Done:  E(RM062X) =  -1063.79412547     A.U. after   15 cycles
 SCF Done:  E(RM062X) =  -1063.79436796     A.U. after   15 cycles
 SCF Done:  E(RM062X) =  -1063.79449765     A.U. after   14 cycles
 SCF Done:  E(RM062X) =  -1063.79462145     A.U. after   13 cycles
 SCF Done:  E(RM062X) =  -1063.79462346     A.U. after   13 cycles
 SCF Done:  E(RM062X) =  -1063.79486978     A.U. after   12 cycles
 SCF Done:  E(RM062X) =  -1063.79487030     A.U. after   10 cycles
 SCF Done:  E(RM062X) =  -1063.79487232     A.U. after   12 cycles
 SCF Done:  E(RM062X) =  -1063.79487231     A.U. after   12 cycles
 SCF Done:  E(RM062X) =  -1063.79486626     A.U. after   12 cycles
 SCF Done:  E(RM062X) =  -1063.79487412     A.U. after   12 cycles
 SCF Done:  E(RM062X) =  -1063.79487450     A.U. after   10 cycles
 SCF Done:  E(RM062X) =  -1063.79487465     A.U. after   10 cycles
 SCF Done:  E(RM062X) =  -1063.79487462     A.U. after    9 cycles
 Optimization completed.
    -- Stationary point found.
 Normal termination of Gaussian 16 at Sun May 22 13:55:59 2022.

 ------------------------------------------------------------------
 #N Geom=AllCheck Guess=TCheck SCRF=Check GenChk RM062X/ChkBas Freq
 ------------------------------------------------------------------

 Structure from the checkpoint file:  "/jobfs/40911281.gadi-pbs/Gau-273391.chk"
 ------------------
 HA.13.smd.a2d3.smd
 ------------------
 Charge =  0 Multiplicity = 1

                         Standard orientation:
 ---------------------------------------------------------------------
 Center     Atomic      Atomic             Coordinates (Angstroms)
 Number     Number       Type             X           Y           Z
 ---------------------------------------------------------------------
      1          6           0       -1.168748    0.009488    0.099786
      2          6           0       -0.416440   -1.161161    0.069054
      3          1           0       -0.899057   -2.132864    0.083418
      4          6           0        0.971357   -1.060326    0.031867
      5          1           0        1.575723   -1.960289    0.015480
      6          6           0        1.576184    0.199056    0.018705
      7          6           0        3.062288    0.347185   -0.019284
      8          6           0        0.802625    1.362774    0.044256
      9          1           0        1.286249    2.333896    0.037016
     10          6           0       -0.583536    1.274351    0.085731
     11          1           0       -1.193755    2.171897    0.113313
     12         16           0       -2.947643   -0.104710    0.107593
     13          8           0       -3.311317   -1.451576    0.544256
     14          8           0       -3.468163    1.055866    0.828992
     15          7           0       -3.485694    0.041246   -1.444759
     16          1           0       -3.134251   -0.710302   -2.041801
     17          1           0       -3.258630    0.955259   -1.842354
     18          8           0        3.703030   -0.818441   -0.011214
     19          8           0        3.631822    1.423344   -0.053631
     20          6           0        5.138788   -0.752600   -0.044298
     21          1           0        5.475422   -1.787210   -0.031848
     22          1           0        5.505872   -0.217916    0.833691
     23          1           0        5.466487   -0.251971   -0.957228
 ---------------------------------------------------------------------

 SCF Done:  E(RM062X) =  -1063.79487462     A.U. after    1 cycles

 The electronic state is 1-A.
 Alpha  occ. eigenvalues --  -90.18432 -19.70712 -19.66441 -19.66395 -19.65627
 Alpha  occ. eigenvalues --  -14.80453 -10.70636 -10.60904 -10.59667 -10.59136
 Alpha  occ. eigenvalues --  -10.58489 -10.58471 -10.58057 -10.57986  -8.49429
 Alpha  occ. eigenvalues --   -6.41625  -6.41618  -6.41491  -1.26385  -1.25387
 Alpha  occ. eigenvalues --   -1.15738  -1.14935  -1.03397  -0.99722  -0.90595
 Alpha  occ. eigenvalues --   -0.87330  -0.83572  -0.77824  -0.72052  -0.71171
 Alpha  occ. eigenvalues --   -0.66307  -0.64790  -0.62624  -0.61737  -0.59517
 Alpha  occ. eigenvalues --   -0.58384  -0.57794  -0.55358  -0.53901  -0.53365
 Alpha  occ. eigenvalues --   -0.51862  -0.51109  -0.48919  -0.47156  -0.46329
 Alpha  occ. eigenvalues --   -0.44091  -0.43988  -0.42733  -0.42308  -0.40827
 Alpha  occ. eigenvalues --   -0.40360  -0.38886  -0.38696  -0.37622  -0.33540
 Alpha  occ. eigenvalues --   -0.33247
 Alpha virt. eigenvalues --   -0.04653  -0.00126   0.01109   0.02600   0.03771
 Alpha virt. eigenvalues --    0.03810   0.04461   0.05003   0.05384   0.05441
 Alpha virt. eigenvalues --    0.05722   0.05825   0.07279   0.08456   0.08551

 Mulliken charges:
               1
     1  C   -0.672040
     2  C   -0.275208
     3  H    0.289465
     4  C   -0.423086
     5  H    0.285771
     6  C    0.149929
     7  C    0.935355
     8  C   -0.362682
     9  H    0.281479
    10  C   -0.221990
    11  H    0.288802
    12  S    1.574574
    13  O   -0.641860
    14  O   -0.626991
    15  N   -0.999828
    16  H    0.504501
    17  H    0.504332
    18  O   -0.365165
    19  O   -0.593934
    20  C   -0.379155
    21  H    0.251227
    22  H    0.248254
    23  H    0.248250
 Sum of Mulliken charges =  -0.00000

 Dipole moment (field-independent basis, Debye):
    X=              5.8258    Y=             -1.6756    Z=             -5.5536  Tot=              8.2213
 Quadrupole moment (field-independent basis, Debye-Ang):
   XX=           -105.0812   YY=            -88.7293   ZZ=            -84.8558
   XY=            -15.9130   XZ=             17.1834   YZ=             -0.3351

  Exact polarizability:     233.120       2.254     197.314       0.697       0.368     118.420
 Approx polarizability:     183.727       2.283     180.640      -0.629       0.553     107.208

                      1                      2                      3
                      A                      A                      A
 Frequencies --     33.6990                42.1356                59.4416
 Red. masses --      5.8824                 4.8556                 5.5517
 Frc consts  --      0.0039                 0.0051                 0.0116
 IR Inten    --      8.2114                 1.6276                 7.8398

                      4                      5                      6
                      A                      A                      A
 Frequencies --    116.3301               131.9216               193.2971
 Red. masses --      5.9749                 3.7639                 2.6696
 Frc consts  --      0.0476                 0.0386                 0.0588
 IR Inten    --      4.2391                15.4208                 8.3517

                      7                      8                      9
                      A                      A                      A
 Frequencies --    201.0690               208.4534               239.1950
 Red. masses --      1.6767                 2.9424                 9.5638
 Frc consts  --      0.0399                 0.0753                 0.3224
 IR Inten    --      6.8356                 9.4939                 2.9748

                     10                     11                     12
                      A                      A                      A
 Frequencies --    289.8062               331.0203               339.7326
 Red. masses --      1.5509                 5.2749                 3.8427
 Frc consts  --      0.0767                 0.3405                 0.2613
 IR Inten    --     16.7051                 7.9183                45.0008

                     13                     14                     15
                      A                      A                      A
 Frequencies --    398.9411               412.4126               435.6224
 Red. masses --      3.0975                 2.8738                 5.1364
 Frc consts  --      0.2905                 0.2880                 0.5743
 IR Inten    --      7.6964                 0.1902                15.5978

                     16                     17                     18
                      A                      A                      A
 Frequencies --    453.5304               461.0455               502.1775
 Red. masses --      4.9995                 5.8359                 6.2603
 Frc consts  --      0.6059                 0.7309                 0.9302
 IR Inten    --     29.9658                17.6300                33.4046

                     19                     20                     21
                      A                      A                      A
 Frequencies --    533.3484               594.7446               635.9409
 Red. masses --      4.3852                 8.2264                 7.0873
 Frc consts  --      0.7350                 1.7144                 1.6887
 IR Inten    --    101.6195                75.4805                 0.8123

                     22                     23                     24
                      A                      A                      A
 Frequencies --    703.9620               721.5261               763.4199
 Red. masses --      3.9613                 3.0709                 3.7299
 Frc consts  --      1.1566                 0.9419                 1.2808
 IR Inten    --     89.3632               259.9927               610.1899

                     25                     26                     27
                      A                      A                      A
 Frequencies --    784.0903               855.8694               870.9481
 Red. masses --      3.2152                 5.1007                 1.2462
 Frc consts  --      1.1646                 2.2014                 0.5570
 IR Inten    --     79.6201                 7.6426                 0.2023

                     28                     29                     30
                      A                      A                      A
 Frequencies --    884.7832               903.7156              1011.8576
 Red. masses --      2.0317                 2.3485                 4.3706
 Frc consts  --      0.9371                 1.1301                 2.6365
 IR Inten    --     58.6425                 6.4738                13.5872

                     31                     32                     33
                      A                      A                      A
 Frequencies --   1013.4580              1024.0640              1035.5816
 Red. masses --      1.5158                 1.3792                 3.4511
 Frc consts  --      0.9173                 0.8522                 2.1806
 IR Inten    --      3.2066                 0.0192                36.9059

                     34                     35                     36
                      A                      A                      A
 Frequencies --   1110.4419              1130.5215              1139.5066
 Red. masses --      4.1619                 1.2562                 1.2960
 Frc consts  --      3.0237                 0.9460                 0.9915
 IR Inten    --    106.7818                 4.4736                15.7573

                     37                     38                     39
                      A                      A                      A
 Frequencies --   1156.9388              1166.2311              1185.6852
 Red. masses --      5.7201                 3.0994                 1.2801
 Frc consts  --      4.5110                 2.4837                 1.0603
 IR Inten    --    491.3671                59.1142                 2.5007

                     40                     41                     42
                      A                      A                      A
 Frequencies --   1201.3995              1235.2959              1306.2564
 Red. masses --      1.2038                 1.6743                10.6559
 Frc consts  --      1.0237                 1.5053                10.7126
 IR Inten    --     71.7347                50.2039               624.6916

                     43                     44                     45
                      A                      A                      A
 Frequencies --   1324.7056              1334.7681              1351.4604
 Red. masses --      1.9045                 2.3299                 6.5837
 Frc consts  --      1.9691                 2.4457                 7.0848
 IR Inten    --    348.7844               369.0642                51.4938

                     46                     47                     48
                      A                      A                      A
 Frequencies --   1447.0674              1491.8403              1497.6990
 Red. masses --      3.3270                 1.2535                 1.0435
 Frc consts  --      4.1046                 1.6437                 1.3791
 IR Inten    --     66.5611                60.0399                17.5141

                     49                     50                     51
                      A                      A                      A
 Frequencies --   1503.0125              1543.4697              1592.4949
 Red. masses --      1.0442                 2.4717                 1.0977
 Frc consts  --      1.3898                 3.4693                 1.6402
 IR Inten    --     25.3998                14.0962               107.2827

                     52                     53                     54
                      A                      A                      A
 Frequencies --   1661.3012              1682.5078              1764.4703
 Red. masses --      7.6742                 6.3934                11.6461
 Frc consts  --     12.4791                10.6634                21.3628
 IR Inten    --     25.7958                13.1853               821.9238

                     55                     56                     57
                      A                      A                      A
 Frequencies --   3117.3765              3203.8639              3237.5897
 Red. masses --      1.0302                 1.1091                 1.1073
 Frc consts  --      5.8983                 6.7074                 6.8382
 IR Inten    --     26.3397                17.0652                11.5881

                     58                     59                     60
                      A                      A                      A
 Frequencies --   3250.5919              3254.9093              3261.3800
 Red. masses --      1.0903                 1.0912                 1.0959
 Frc consts  --      6.7876                 6.8114                 6.8676
 IR Inten    --      2.5233                 2.5456                 0.4911

                     61                     62                     63
                      A                      A                      A
 Frequencies --   3270.0177              3497.8209              3597.9358
 Red. masses --      1.0951                 1.0486                 1.0983
 Frc consts  --      6.8991                 7.5588                 8.3769
 IR Inten    --      0.4153               140.0326               155.8135

 - Thermochemistry -
 -------------------
 Temperature   298.150 Kelvin.  Pressure   1.00000 Atm.
 Atom     1 has atomic number  6 and mass  12.00000

 Molecular mass:   215.02523 amu.
 Principal axes and moments of inertia in atomic units:
                           1         2         3
     Eigenvalues --   904.795606853.778447366.86258
           X            0.99995  -0.00837   0.00615
           Y            0.00838   0.99996  -0.00088
           Z           -0.00615   0.00093   0.99998
 This molecule is an asymmetric top.
 Rotational symmetry number  1.
 Warning -- assumption of classical behavior for rotation
           may cause significant error
 Rotational temperatures (Kelvin)      0.09573     0.01264     0.01176
 Rotational constants (GHZ):           1.99464     0.26332     0.24498
 Zero-point vibrational energy     452820.6 (Joules/Mol)
                                  108.22673 (Kcal/Mol)
 Warning -- explicit consideration of  20 degrees of freedom as
           vibrations may cause significant error
 Vibrational temperatures:     48.49    60.62    85.52   167.37   189.81
          (Kelvin)            278.11   289.29   299.92   344.15   416.97
                              476.26   488.80   573.99   593.37   626.76
                              652.53   663.34   722.52   767.37   855.70
                              914.98  1012.84  1038.12  1098.39  1128.13
                             1231.41  1253.10  1273.01  1300.25  1455.84
                             1458.14  1473.40  1489.97  1597.68  1626.57
                             1639.50  1664.58  1677.95  1705.94  1728.55
                             1777.32  1879.41  1905.96  1920.43  1944.45
                             2082.01  2146.43  2154.85  2162.50  2220.71
                             2291.24  2390.24  2420.75  2538.68  4485.21
                             4609.65  4658.17  4676.88  4683.09  4692.40
                             4704.83  5032.58  5176.63

 Zero-point correction=                           0.172470 (Hartree/Particle)
 Thermal correction to Energy=                    0.185702
 Thermal correction to Enthalpy=                  0.186646
 Thermal correction to Gibbs Free Energy=         0.131271
 Sum of electronic and zero-point Energies=          -1063.622404
 Sum of electronic and thermal Energies=             -1063.609173
 Sum of electronic and thermal Enthalpies=           -1063.608229
 Sum of electronic and thermal Free Energies=        -1063.663604

                     E (Thermal)             CV                S
                      KCal/Mol        Cal/Mol-Kelvin    Cal/Mol-Kelvin
 Total                  116.530             48.833            116.546
 Electronic               0.000              0.000              0.000
 Translational            0.889              2.981             42.000
 Rotational               0.889              2.981             32.191
 Vibrational            114.752             42.872             42.355
 Vibration     1          0.594              1.983              5.599
 Vibration     2          0.595              1.980              5.156
 Vibration     3          0.597              1.974              4.476
 Vibration     4          0.608              1.936              3.160
 Vibration     5          0.612              1.921              2.918
 Vibration     6          0.635              1.849              2.196
 Vibration     7          0.638              1.838              2.123
 Vibration     8          0.642              1.828              2.057
 Vibration     9          0.657              1.781              1.809
 Vibration    10          0.686              1.693              1.475
 Vibration    11          0.713              1.614              1.255
 Vibration    12          0.720              1.596              1.213
 Vibration    13          0.765              1.472              0.967
 Vibration    14          0.776              1.443              0.918
 Vibration    15          0.796              1.393              0.840
 Vibration    16          0.812              1.353              0.785
 Vibration    17          0.819              1.336              0.763
 Vibration    18          0.858              1.245              0.653
 Vibration    19          0.888              1.176              0.580
 Vibration    20          0.952              1.043              0.459

 Optimization completed.
    -- Stationary point found.
 Normal termination of Gaussian 16 at Sun May 22 14:03:13 2022.
