 Gaussian 16, Revision C.01,
 Gaussian 16:  ES64L-G16RevC.01  3-Jul-2019

 -----------------------------------------------------
 #m062X/gen 6D OPT Freq=noraman SCRF=(SMD,Solvent=h2o)
 -----------------------------------------------------

 --------------------
 HA.11.smd.a1c2d2.smd
 --------------------
 Symbolic Z-matrix:
 Charge =  0 Multiplicity = 1

 SCF Done:  E(RM062X) =  -930.618534464     A.U. after   15 cycles
 SCF Done:  E(RM062X) =  -930.621288431     A.U. after   13 cycles
 SCF Done:  E(RM062X) =  -930.622295876     A.U. after   13 cycles
 SCF Done:  E(RM062X) =  -930.622441290     A.U. after   13 cycles
 SCF Done:  E(RM062X) =  -930.622540481     A.U. after   13 cycles
 SCF Done:  E(RM062X) =  -930.622597187     A.U. after   13 cycles
 SCF Done:  E(RM062X) =  -930.622736127     A.U. after   16 cycles
 SCF Done:  E(RM062X) =  -930.622666051     A.U. after   15 cycles
 SCF Done:  E(RM062X) =  -930.622771606     A.U. after   16 cycles
 SCF Done:  E(RM062X) =  -930.622740445     A.U. after   15 cycles
 SCF Done:  E(RM062X) =  -930.622934493     A.U. after   12 cycles
 SCF Done:  E(RM062X) =  -930.622947218     A.U. after   12 cycles
 SCF Done:  E(RM062X) =  -930.622948746     A.U. after   11 cycles
 SCF Done:  E(RM062X) =  -930.622951978     A.U. after   11 cycles
 SCF Done:  E(RM062X) =  -930.622953892     A.U. after   11 cycles
 SCF Done:  E(RM062X) =  -930.622952863     A.U. after   11 cycles
 SCF Done:  E(RM062X) =  -930.622953697     A.U. after   11 cycles
 SCF Done:  E(RM062X) =  -930.622953735     A.U. after    9 cycles
 SCF Done:  E(RM062X) =  -930.622953860     A.U. after    9 cycles
 Optimization completed.
    -- Stationary point found.
 Normal termination of Gaussian 16 at Wed Jun 29 12:16:20 2022.

 ------------------------------------------------------------------
 #N Geom=AllCheck Guess=TCheck SCRF=Check GenChk RM062X/ChkBas Freq
 ------------------------------------------------------------------

 Structure from the checkpoint file:  "/jobfs/48706473.gadi-pbs/Gau-2003813.chk"
 --------------------
 HA.11.smd.a1c2d2.smd
 --------------------
 Charge =  0 Multiplicity = 1

                         Standard orientation:
 ---------------------------------------------------------------------
 Center     Atomic      Atomic             Coordinates (Angstroms)
 Number     Number       Type             X           Y           Z
 ---------------------------------------------------------------------
      1          6           0       -0.520678    0.047708   -0.098157
      2          6           0        0.262898   -1.100421   -0.075572
      3          1           0       -0.195019   -2.084301   -0.102353
      4          6           0        1.650984   -0.966314   -0.029909
      5          1           0        2.263747   -1.862869   -0.020687
      6          6           0        2.246841    0.295625   -0.000727
      7          6           0        3.751482    0.488354    0.047137
      8          6           0        1.428048    1.435196   -0.018888
      9          1           0        1.885336    2.421838    0.000297
     10          6           0        0.045712    1.324306   -0.067653
     11          1           0       -0.581027    2.211211   -0.088535
     12         16           0       -2.287777   -0.103331   -0.113910
     13          8           0       -2.837785    1.047113   -0.833710
     14          8           0       -2.628639   -1.456596   -0.555376
     15          7           0       -2.850984    0.026202    1.435878
     16          1           0       -2.641570    0.943724    1.835239
     17          1           0       -2.478451   -0.714727    2.033408
     18          7           0        4.584823   -0.706357    0.065843
     19          1           0        4.041745    1.096947   -0.815643
     20          1           0        3.987589    1.086804    0.933215
     21          1           0        4.387677   -1.272587   -0.758535
     22          1           0        4.337192   -1.282525    0.869399
 ---------------------------------------------------------------------

 SCF Done:  E(RM062X) =  -930.622953860     A.U. after    1 cycles

 The electronic state is 1-A.
 Alpha  occ. eigenvalues --  -90.18003 -19.66074 -19.66015 -14.80126 -14.74660
 Alpha  occ. eigenvalues --  -10.59619 -10.57755 -10.57724 -10.57503 -10.57366
 Alpha  occ. eigenvalues --  -10.56455 -10.56426  -8.49007  -6.41205  -6.41197
 Alpha  occ. eigenvalues --   -6.41059  -1.25930  -1.14493  -1.02983  -1.00150
 Alpha  occ. eigenvalues --   -0.97614  -0.88407  -0.86116  -0.78979  -0.73617
 Alpha  occ. eigenvalues --   -0.70629  -0.67602  -0.63934  -0.61361  -0.59770
 Alpha  occ. eigenvalues --   -0.57041  -0.55723  -0.55348  -0.53343  -0.52574
 Alpha  occ. eigenvalues --   -0.50304  -0.47480  -0.47205  -0.45007  -0.43866
 Alpha  occ. eigenvalues --   -0.43593  -0.42025  -0.41360  -0.40029  -0.39960
 Alpha  occ. eigenvalues --   -0.38080  -0.32398  -0.31840  -0.31380
 Alpha virt. eigenvalues --   -0.01232   0.00598   0.01238   0.02571   0.03750
 Alpha virt. eigenvalues --    0.03899   0.04737   0.04906   0.05786   0.06073
 Alpha virt. eigenvalues --    0.07087   0.07872   0.09030   0.09119   0.09808

 Mulliken charges:
               1
     1  C   -1.035959
     2  C   -0.284131
     3  H    0.279400
     4  C   -0.728293
     5  H    0.254232
     6  C   -0.122543
     7  C    0.021245
     8  C    0.104028
     9  H    0.258520
    10  C    0.298074
    11  H    0.278804
    12  S    1.566320
    13  O   -0.630220
    14  O   -0.652670
    15  N   -1.003182
    16  H    0.501314
    17  H    0.503580
    18  N   -1.019193
    19  H    0.257672
    20  H    0.256818
    21  H    0.447969
    22  H    0.448214
 Sum of Mulliken charges =  -0.00000

 Dipole moment (field-independent basis, Debye):
    X=              5.8836    Y=              0.7618    Z=              5.5955  Tot=              8.1552
 Quadrupole moment (field-independent basis, Debye-Ang):
   XX=           -110.1724   YY=            -72.8571   ZZ=            -74.7783
   XY=             -3.7045   XZ=            -13.8696   YZ=              0.7010

  Exact polarizability:     211.211       1.743     180.709      -0.476      -0.050     118.039
 Approx polarizability:     168.832       0.556     163.393       0.787      -0.281     105.855

                      1                      2                      3
                      A                      A                      A
 Frequencies --     37.4227                51.8879                85.9825
 Red. masses --      4.2805                 3.0029                 3.2930
 Frc consts  --      0.0035                 0.0048                 0.0143
 IR Inten    --      5.7209                 2.8290                 8.2174

                      4                      5                      6
                      A                      A                      A
 Frequencies --    142.9656               192.0192               229.2537
 Red. masses --      6.6557                 3.6595                 4.9465
 Frc consts  --      0.0802                 0.0795                 0.1532
 IR Inten    --      9.9801                10.8033                 2.7663

                      7                      8                      9
                      A                      A                      A
 Frequencies --    277.7160               297.5763               328.6800
 Red. masses --      3.2906                 1.8377                 2.2303
 Frc consts  --      0.1495                 0.0959                 0.1420
 IR Inten    --     11.8089                25.2232                38.9626

                     10                     11                     12
                      A                      A                      A
 Frequencies --    363.3384               398.4010               415.3357
 Red. masses --      1.4789                 3.0137                 2.8218
 Frc consts  --      0.1150                 0.2818                 0.2868
 IR Inten    --     83.0705                 7.3332                 5.2954

                     13                     14                     15
                      A                      A                      A
 Frequencies --    446.4600               462.4110               472.0946
 Red. masses --      3.8956                 4.8220                 4.3704
 Frc consts  --      0.4575                 0.6075                 0.5739
 IR Inten    --     33.4886                 4.4203                 5.6840

                     16                     17                     18
                      A                      A                      A
 Frequencies --    531.6812               566.0248               637.2353
 Red. masses --      3.8285                 6.1506                 7.0183
 Frc consts  --      0.6377                 1.1610                 1.6791
 IR Inten    --    142.7356               146.4504                 0.3824

                     19                     20                     21
                      A                      A                      A
 Frequencies --    662.3396               713.9398               750.5285
 Red. masses --      4.4063                 2.9836                 2.6352
 Frc consts  --      1.1389                 0.8960                 0.8746
 IR Inten    --     14.3816                14.5661               685.9194

                     22                     23                     24
                      A                      A                      A
 Frequencies --    820.0943               820.9477               868.7529
 Red. masses --      3.0841                 1.5803                 1.2489
 Frc consts  --      1.2221                 0.6275                 0.5553
 IR Inten    --    171.1478                66.8788                 0.0425

                     25                     26                     27
                      A                      A                      A
 Frequencies --    898.0367               924.0757               973.4897
 Red. masses --      2.1583                 1.4977                 1.6324
 Frc consts  --      1.0255                 0.7535                 0.9115
 IR Inten    --     32.1092                15.9634               328.4868

                     28                     29                     30
                      A                      A                      A
 Frequencies --   1003.7663              1016.9711              1029.3477
 Red. masses --      1.3400                 1.3647                 3.3068
 Frc consts  --      0.7955                 0.8316                 2.0643
 IR Inten    --      0.6541                 0.0030                 8.0818

                     31                     32                     33
                      A                      A                      A
 Frequencies --   1108.8724              1126.4351              1132.8120
 Red. masses --      4.5473                 2.2357                 1.3099
 Frc consts  --      3.2943                 1.6714                 0.9904
 IR Inten    --    126.1419                41.5123                21.7430

                     34                     35                     36
                      A                      A                      A
 Frequencies --   1152.1065              1155.0944              1202.6446
 Red. masses --      2.3618                 2.2454                 1.2086
 Frc consts  --      1.8471                 1.7651                 1.0299
 IR Inten    --    203.1759               195.5882                 0.9556

                     37                     38                     39
                      A                      A                      A
 Frequencies --   1206.9367              1232.7572              1297.7700
 Red. masses --      1.2053                 2.6402                 9.9091
 Frc consts  --      1.0345                 2.3640                 9.8328
 IR Inten    --      8.5435                 0.7803               553.0443

                     40                     41                     42
                      A                      A                      A
 Frequencies --   1325.0710              1345.8002              1398.6831
 Red. masses --      1.4596                 4.0097                 1.6944
 Frc consts  --      1.5100                 4.2788                 1.9530
 IR Inten    --      7.0042                 5.8462                44.5493

                     43                     44                     45
                      A                      A                      A
 Frequencies --   1401.2824              1456.1193              1476.9460
 Red. masses --      1.1706                 2.6477                 1.0882
 Frc consts  --      1.3543                 3.3076                 1.3986
 IR Inten    --      0.3881                48.6458                16.2048

                     46                     47                     48
                      A                      A                      A
 Frequencies --   1542.8908              1594.7326              1657.9407
 Red. masses --      2.4063                 1.0967                 5.9392
 Frc consts  --      3.3750                 1.6433                 9.6187
 IR Inten    --      5.0332               105.4466                 9.7743

                     49                     50                     51
                      A                      A                      A
 Frequencies --   1662.3841              1676.0655              3098.4837
 Red. masses --      1.1299                 6.1348                 1.0610
 Frc consts  --      1.8397                10.1539                 6.0015
 IR Inten    --     53.4223                42.8492                30.1901

                     52                     53                     54
                      A                      A                      A
 Frequencies --   3138.4651              3218.9265              3237.7057
 Red. masses --      1.1045                 1.0906                 1.0893
 Frc consts  --      6.4098                 6.6582                 6.7281
 IR Inten    --     19.0462                 7.1250                 1.9927

                     55                     56                     57
                      A                      A                      A
 Frequencies --   3246.6068              3251.7900              3497.4667
 Red. masses --      1.0943                 1.0950                 1.0489
 Frc consts  --      6.7960                 6.8217                 7.5592
 IR Inten    --      0.7878                 0.9401               130.6292

                     58                     59                     60
                      A                      A                      A
 Frequencies --   3504.7551              3585.1000              3596.4360
 Red. masses --      1.0510                 1.0929                 1.0977
 Frc consts  --      7.6059                 8.2762                 8.3654
 IR Inten    --      5.2738                20.5211               146.4396

 - Thermochemistry -
 -------------------
 Temperature   298.150 Kelvin.  Pressure   1.00000 Atm.
 Atom     1 has atomic number  6 and mass  12.00000

 Molecular mass:   186.04630 amu.
 Principal axes and moments of inertia in atomic units:
                           1         2         3
     Eigenvalues --   771.562434477.018534848.59589
           X            0.99997  -0.00338  -0.00753
           Y            0.00341   0.99999   0.00327
           Z            0.00752  -0.00330   0.99997
 This molecule is an asymmetric top.
 Rotational symmetry number  1.
 Warning -- assumption of classical behavior for rotation
           may cause significant error
 Rotational temperatures (Kelvin)      0.11226     0.01935     0.01786
 Rotational constants (GHZ):           2.33907     0.40311     0.37222
 Zero-point vibrational energy     460250.4 (Joules/Mol)
                                  110.00248 (Kcal/Mol)
 Warning -- explicit consideration of  17 degrees of freedom as
           vibrations may cause significant error
 Vibrational temperatures:     53.84    74.66   123.71   205.70   276.27
          (Kelvin)            329.84   399.57   428.15   472.90   522.76
                              573.21   597.58   642.36   665.31   679.24
                              764.97   814.38   916.84   952.96  1027.20
                             1079.84  1179.93  1181.16  1249.94  1292.07
                             1329.54  1400.63  1444.20  1463.19  1481.00
                             1595.42  1620.69  1629.86  1657.62  1661.92
                             1730.34  1736.51  1773.66  1867.20  1906.48
                             1936.31  2012.39  2016.13  2095.03  2125.00
                             2219.88  2294.46  2385.41  2391.80  2411.48
                             4458.03  4515.55  4631.32  4658.34  4671.14
                             4678.60  5032.07  5042.56  5158.16  5174.47

 Zero-point correction=                           0.175300 (Hartree/Particle)
 Thermal correction to Energy=                    0.186842
 Thermal correction to Enthalpy=                  0.187786
 Thermal correction to Gibbs Free Energy=         0.136877
 Sum of electronic and zero-point Energies=           -930.447654
 Sum of electronic and thermal Energies=              -930.436112
 Sum of electronic and thermal Enthalpies=            -930.435168
 Sum of electronic and thermal Free Energies=         -930.486077

                     E (Thermal)             CV                S
                      KCal/Mol        Cal/Mol-Kelvin    Cal/Mol-Kelvin
 Total                  117.245             43.717            107.147
 Electronic               0.000              0.000              0.000
 Translational            0.889              2.981             41.569
 Rotational               0.889              2.981             31.194
 Vibrational            115.468             37.756             34.384
 Vibration     1          0.594              1.982              5.391
 Vibration     2          0.596              1.977              4.744
 Vibration     3          0.601              1.959              3.749
 Vibration     4          0.616              1.910              2.764
 Vibration     5          0.634              1.851              2.208
 Vibration     6          0.652              1.796              1.885
 Vibration     7          0.679              1.715              1.548
 Vibration     8          0.691              1.678              1.430
 Vibration     9          0.712              1.618              1.267
 Vibration    10          0.737              1.548              1.108
 Vibration    11          0.765              1.474              0.969
 Vibration    12          0.779              1.437              0.908
 Vibration    13          0.806              1.369              0.807
 Vibration    14          0.820              1.333              0.759
 Vibration    15          0.829              1.312              0.732
 Vibration    16          0.887              1.180              0.583
 Vibration    17          0.922              1.105              0.512

 Optimization completed.
    -- Stationary point found.
 Normal termination of Gaussian 16 at Wed Jun 29 12:20:36 2022.
