 Gaussian 16, Revision C.01,
 Gaussian 16:  ES64L-G16RevC.01  3-Jul-2019

 -----------------------------------------------------
 #m062X/gen 6D OPT Freq=noraman SCRF=(SMD,Solvent=h2o)
 -----------------------------------------------------

 ----------------
 HA.19.smd.a1.smd
 ----------------
 Symbolic Z-matrix:
 Charge =  0 Multiplicity = 1

 SCF Done:  E(RM062X) =  -1633.89780531     A.U. after   15 cycles
 SCF Done:  E(RM062X) =  -1633.89780523     A.U. after    8 cycles
 Optimization completed.
    -- Stationary point found.
 Normal termination of Gaussian 16 at Fri May 27 00:12:09 2022.

 ------------------------------------------------------------------
 #N Geom=AllCheck Guess=TCheck SCRF=Check GenChk RM062X/ChkBas Freq
 ------------------------------------------------------------------

 Structure from the checkpoint file:  "/jobfs/41414963.gadi-pbs/Gau-2939762.chk"
 ----------------
 HA.19.smd.a1.smd
 ----------------
 Charge =  0 Multiplicity = 1

                         Standard orientation:
 ---------------------------------------------------------------------
 Center     Atomic      Atomic             Coordinates (Angstroms)
 Number     Number       Type             X           Y           Z
 ---------------------------------------------------------------------
      1          6           0        2.955188    0.027905    0.245004
      2         16           0        4.636768    0.473222    0.041489
      3          8           0        4.684240    1.712367   -0.728618
      4          8           0        5.225446    0.403151    1.373654
      5          7           0        5.387378   -0.662373   -0.878715
      6          1           0        5.038972   -0.674081   -1.839560
      7          1           0        5.347469   -1.592978   -0.458176
      8          6           0        2.277109   -0.441032    1.326599
      9          6           0        0.941152   -0.666532    0.854009
     10          6           0        0.963412   -0.317156   -0.474983
     11          8           0        2.174382    0.114201   -0.886678
     12          6           0       -0.373374   -1.091307    1.251774
     13          6           0       -1.256893   -1.042088    0.216899
     14         16           0       -0.538663   -0.463966   -1.295243
     15          1           0        2.685492   -0.593700    2.316430
     16          1           0       -0.655547   -1.415946    2.247079
     17          6           0       -2.702579   -1.432906    0.231585
     18          7           0       -3.593839   -0.354477   -0.197111
     19          6           0       -3.517348    0.776657    0.732179
     20          6           0       -4.503958    1.857473    0.332224
     21          8           0       -5.836250    1.354183    0.304748
     22          6           0       -5.933324    0.257266   -0.598760
     23          6           0       -4.973011   -0.851470   -0.211427
     24          1           0       -2.938842   -1.762284    1.259034
     25          1           0       -2.870196   -2.288343   -0.432853
     26          1           0       -2.505782    1.194935    0.720462
     27          1           0       -3.736521    0.443019    1.763488
     28          1           0       -4.248042    2.257646   -0.659734
     29          1           0       -4.489876    2.673071    1.058434
     30          1           0       -5.720632    0.608302   -1.618972
     31          1           0       -6.964672   -0.099057   -0.553159
     32          1           0       -5.052961   -1.672160   -0.931502
     33          1           0       -5.254081   -1.240633    0.784402
 ---------------------------------------------------------------------

 SCF Done:  E(RM062X) =  -1633.89780523     A.U. after    1 cycles

 The electronic state is 1-A.
 Alpha  occ. eigenvalues --  -90.19448 -89.97318 -19.75192 -19.66919 -19.66811
 Alpha  occ. eigenvalues --  -19.65584 -14.80749 -14.76532 -10.64975 -10.64759
 Alpha  occ. eigenvalues --  -10.59770 -10.59042 -10.58883 -10.58881 -10.58327
 Alpha  occ. eigenvalues --  -10.57489 -10.56926 -10.56630 -10.56540  -8.50316
 Alpha  occ. eigenvalues --   -8.31675  -6.42518  -6.42506  -6.42430  -6.23699
 Alpha  occ. eigenvalues --   -6.23479  -6.23179  -1.28266  -1.26433  -1.16698
 Alpha  occ. eigenvalues --   -1.15535  -1.04328  -1.03769  -0.99810  -0.93167
 Alpha  occ. eigenvalues --   -0.87871  -0.86908  -0.84045  -0.82123  -0.76634
 Alpha  occ. eigenvalues --   -0.74071  -0.73584  -0.69819  -0.67350  -0.65927
 Alpha  occ. eigenvalues --   -0.64645  -0.62084  -0.61074  -0.59963  -0.58302
 Alpha  occ. eigenvalues --   -0.57572  -0.57229  -0.55367  -0.54882  -0.54063
 Alpha  occ. eigenvalues --   -0.53532  -0.52089  -0.51563  -0.50456  -0.48901
 Alpha  occ. eigenvalues --   -0.46848  -0.46589  -0.44746  -0.44537  -0.43904
 Alpha  occ. eigenvalues --   -0.43516  -0.42890  -0.41641  -0.41554  -0.41329
 Alpha  occ. eigenvalues --   -0.40944  -0.40329  -0.39618  -0.37893  -0.37283
 Alpha  occ. eigenvalues --   -0.33346  -0.30352  -0.29436  -0.28475
 Alpha virt. eigenvalues --   -0.00549   0.00562   0.00959   0.02342   0.02869
 Alpha virt. eigenvalues --    0.02948   0.03507   0.03876   0.04195   0.04279
 Alpha virt. eigenvalues --    0.05051   0.05397   0.05743   0.06119   0.06395

 Mulliken charges:
               1
     1  C   -0.849249
     2  S    1.903466
     3  O   -0.592986
     4  O   -0.612112
     5  N   -0.978270
     6  H    0.506360
     7  H    0.502804
     8  C   -0.265285
     9  C    0.726974
    10  C   -0.902475
    11  O   -0.231987
    12  C   -0.091349
    13  C   -0.083061
    14  S    0.500846
    15  H    0.314530
    16  H    0.280608
    17  C   -0.421417
    18  N   -0.482484
    19  C   -0.116550
    20  C   -0.479380
    21  O   -0.445787
    22  C   -0.417136
    23  C   -0.175671
    24  H    0.252286
    25  H    0.263914
    26  H    0.254770
    27  H    0.235005
    28  H    0.227200
    29  H    0.235855
    30  H    0.226878
    31  H    0.235599
    32  H    0.241347
    33  H    0.236756
 Sum of Mulliken charges =  -0.00000

 Dipole moment (field-independent basis, Debye):
    X=             -4.9354    Y=             -8.3355    Z=             -0.2180  Tot=              9.6895
 Quadrupole moment (field-independent basis, Debye-Ang):
   XX=           -164.5706   YY=           -126.1196   ZZ=           -121.8718
   XY=            -15.7963   XZ=             -6.8766   YZ=              1.2715

  Exact polarizability:     329.143      24.445     210.732       7.050     -14.202     259.151
 Approx polarizability:     259.110      17.740     185.551       8.102     -15.266     240.129

                      1                      2                      3
                      A                      A                      A
 Frequencies --     24.4998                32.7220                51.8314
 Red. masses --      8.6002                 6.8049                 4.2775
 Frc consts  --      0.0030                 0.0043                 0.0068
 IR Inten    --      0.6382                 0.9296                 7.5095

                      4                      5                      6
                      A                      A                      A
 Frequencies --     56.8367                72.1303               109.0480
 Red. masses --      4.4939                 6.4935                 7.3220
 Frc consts  --      0.0086                 0.0199                 0.0513
 IR Inten    --      3.5543                 7.6512                 1.4401

                      7                      8                      9
                      A                      A                      A
 Frequencies --    154.3372               160.4919               211.6864
 Red. masses --      6.8849                 4.7603                 7.6148
 Frc consts  --      0.0966                 0.0722                 0.2010
 IR Inten    --      9.5843                13.2514                 4.4734

                     10                     11                     12
                      A                      A                      A
 Frequencies --    223.5875               268.7995               279.4496
 Red. masses --      6.0100                 3.5114                 1.9546
 Frc consts  --      0.1770                 0.1495                 0.0899
 IR Inten    --      2.8968                12.2003                 2.4986

                     13                     14                     15
                      A                      A                      A
 Frequencies --    303.6405               317.2211               322.9154
 Red. masses --      3.3423                 2.0845                 4.9939
 Frc consts  --      0.1816                 0.1236                 0.3068
 IR Inten    --      4.4660                37.1672                10.5041

                     16                     17                     18
                      A                      A                      A
 Frequencies --    341.2916               361.4451               381.2599
 Red. masses --      6.4969                 2.2769                 2.4376
 Frc consts  --      0.4459                 0.1753                 0.2088
 IR Inten    --      1.9548                10.3441                13.0703

                     19                     20                     21
                      A                      A                      A
 Frequencies --    437.4164               450.5787               471.0505
 Red. masses --      3.1529                 2.1858                 4.5712
 Frc consts  --      0.3554                 0.2615                 0.5976
 IR Inten    --     34.2576                 1.0435                 3.9676

                     22                     23                     24
                      A                      A                      A
 Frequencies --    480.0483               499.4347               506.1553
 Red. masses --      8.6677                 2.8590                 7.2061
 Frc consts  --      1.1769                 0.4202                 1.0877
 IR Inten    --     54.8211                 1.4388                26.1595

                     25                     26                     27
                      A                      A                      A
 Frequencies --    529.7333               563.6279               599.3942
 Red. masses --      4.4892                 8.6202                 5.3625
 Frc consts  --      0.7422                 1.6134                 1.1351
 IR Inten    --      7.7755               127.0597                14.2322

                     28                     29                     30
                      A                      A                      A
 Frequencies --    627.2514               640.5713               668.8217
 Red. masses --      4.6342                 3.0795                 3.3956
 Frc consts  --      1.0743                 0.7445                 0.8949
 IR Inten    --     71.7484                 2.4333                35.1118

                     31                     32                     33
                      A                      A                      A
 Frequencies --    671.9873               691.4880               715.4046
 Red. masses --      3.9919                 4.9958                 2.3579
 Frc consts  --      1.0621                 1.4074                 0.7110
 IR Inten    --     27.3704                37.1613               816.7291

                     34                     35                     36
                      A                      A                      A
 Frequencies --    811.4062               829.1519               863.2927
 Red. masses --      5.5087                 2.6904                 1.4656
 Frc consts  --      2.1369                 1.0898                 0.6436
 IR Inten    --     90.8578                22.5118                 5.6124

                     37                     38                     39
                      A                      A                      A
 Frequencies --    877.0007               884.8250               900.0755
 Red. masses --      1.5655                 1.4939                 2.7678
 Frc consts  --      0.7094                 0.6891                 1.3211
 IR Inten    --      1.7848                71.1421                39.2562

                     40                     41                     42
                      A                      A                      A
 Frequencies --    904.1977               945.5049               953.5916
 Red. masses --      2.8538                 2.1114                 9.0541
 Frc consts  --      1.3747                 1.1121                 4.8509
 IR Inten    --     82.5642                36.2997                35.9417

                     43                     44                     45
                      A                      A                      A
 Frequencies --   1016.4039              1040.1959              1065.2473
 Red. masses --      1.7170                 2.6225                 1.9748
 Frc consts  --      1.0451                 1.6718                 1.3203
 IR Inten    --      3.6296                45.3636                14.7789

                     46                     47                     48
                      A                      A                      A
 Frequencies --   1090.8808              1103.8578              1118.6007
 Red. masses --      2.0567                 1.7956                 5.0845
 Frc consts  --      1.4420                 1.2891                 3.7484
 IR Inten    --     43.0909                 9.9000               108.2490

                     49                     50                     51
                      A                      A                      A
 Frequencies --   1135.1989              1144.9628              1146.4220
 Red. masses --      1.2943                 3.6365                 2.6021
 Frc consts  --      0.9827                 2.8088                 2.0150
 IR Inten    --     19.9370               321.4319                96.9267

                     52                     53                     54
                      A                      A                      A
 Frequencies --   1161.9755              1175.9092              1184.4872
 Red. masses --      2.2626                 3.5662                 3.1978
 Frc consts  --      1.7999                 2.9054                 2.6434
 IR Inten    --     33.2912               180.9611               141.8764

                     55                     56                     57
                      A                      A                      A
 Frequencies --   1211.1343              1230.5467              1245.0949
 Red. masses --      2.5201                 2.8927                 1.0915
 Frc consts  --      2.1779                 2.5808                 0.9970
 IR Inten    --     24.1085                 1.5829                 3.0921

                     58                     59                     60
                      A                      A                      A
 Frequencies --   1254.6652              1288.5591              1310.4806
 Red. masses --      2.6913                 1.2503                 1.2970
 Frc consts  --      2.4962                 1.2232                 1.3123
 IR Inten    --      6.6894                20.9515                40.4469

                     61                     62                     63
                      A                      A                      A
 Frequencies --   1317.8637              1323.8119              1337.8788
 Red. masses --      9.1602                 9.9440                 1.3578
 Frc consts  --      9.3734                10.2675                 1.4319
 IR Inten    --    261.8319               440.9466                53.5955

                     64                     65                     66
                      A                      A                      A
 Frequencies --   1350.8545              1377.1912              1397.7096
 Red. masses --      1.2061                 1.2891                 1.4467
 Frc consts  --      1.2967                 1.4405                 1.6652
 IR Inten    --      1.4415                13.0795               117.2799

                     67                     68                     69
                      A                      A                      A
 Frequencies --   1418.0150              1430.9642              1451.1030
 Red. masses --      1.4464                 1.4033                 1.7073
 Frc consts  --      1.7135                 1.6930                 2.1181
 IR Inten    --     12.0135                 4.2156                11.9588

                     70                     71                     72
                      A                      A                      A
 Frequencies --   1493.6588              1495.0628              1500.5276
 Red. masses --      1.3320                 1.1104                 3.1065
 Frc consts  --      1.7509                 1.4623                 4.1210
 IR Inten    --      7.6071                 0.9460                83.7437

                     73                     74                     75
                      A                      A                      A
 Frequencies --   1503.2989              1506.9574              1515.2518
 Red. masses --      1.0905                 1.1117                 1.1086
 Frc consts  --      1.4520                 1.4874                 1.4996
 IR Inten    --      4.3270                34.4168                 0.7283

                     76                     77                     78
                      A                      A                      A
 Frequencies --   1527.1254              1598.7679              1608.8252
 Red. masses --      8.9632                 1.1008                 8.2373
 Frc consts  --     12.3158                 1.6578                12.5619
 IR Inten    --     45.3866               111.2905               140.9813

                     79                     80                     81
                      A                      A                      A
 Frequencies --   1647.4402              2992.2739              2994.7510
 Red. masses --      7.5101                 1.0718                 1.0713
 Frc consts  --     12.0092                 5.6541                 5.6609
 IR Inten    --      7.1406                64.1028               197.0182

                     82                     83                     84
                      A                      A                      A
 Frequencies --   3009.0719              3059.1273              3060.8663
 Red. masses --      1.0705                 1.0690                 1.0690
 Frc consts  --      5.7110                 5.8943                 5.9007
 IR Inten    --     82.0222                88.3705                88.6593

                     85                     86                     87
                      A                      A                      A
 Frequencies --   3117.7038              3134.7465              3135.2472
 Red. masses --      1.0907                 1.0908                 1.0905
 Frc consts  --      6.2466                 6.3152                 6.3156
 IR Inten    --     24.5841                47.3694                35.9078

                     88                     89                     90
                      A                      A                      A
 Frequencies --   3164.9571              3166.0582              3267.5201
 Red. masses --      1.0965                 1.0970                 1.0955
 Frc consts  --      6.4716                 6.4789                 6.8913
 IR Inten    --     44.8661                35.2440                 4.1413

                     91                     92                     93
                      A                      A                      A
 Frequencies --   3308.7240              3491.0581              3593.0806
 Red. masses --      1.0998                 1.0486                 1.0994
 Frc consts  --      7.0938                 7.5300                 8.3622
 IR Inten    --     14.5502               155.2260               171.2856

 - Thermochemistry -
 -------------------
 Temperature   298.150 Kelvin.  Pressure   1.00000 Atm.
 Atom     1 has atomic number  6 and mass  12.00000

 Molecular mass:   302.03950 amu.
 Principal axes and moments of inertia in atomic units:
                           1         2         3
     Eigenvalues --  1648.38424********************
           X            0.99999  -0.00351  -0.00143
           Y            0.00347   0.99962  -0.02738
           Z            0.00153   0.02738   0.99962
 This molecule is an asymmetric top.
 Rotational symmetry number  1.
 Warning -- assumption of classical behavior for rotation
           may cause significant error
 Rotational temperatures (Kelvin)      0.05254     0.00530     0.00525
 Rotational constants (GHZ):           1.09485     0.11035     0.10932
 Zero-point vibrational energy     678386.2 (Joules/Mol)
                                  162.13820 (Kcal/Mol)
 Warning -- explicit consideration of  27 degrees of freedom as
           vibrations may cause significant error
 Vibrational temperatures:     35.25    47.08    74.57    81.78   103.78
          (Kelvin)            156.90   222.06   230.91   304.57   321.69
                              386.74   402.07   436.87   456.41   464.60
                              491.04   520.04   548.55   629.34   648.28
                              677.74   690.68   718.58   728.24   762.17
                              810.93   862.39   902.47   921.64   962.29
                              966.84   994.90  1029.31  1167.43  1192.96
                             1242.09  1261.81  1273.07  1295.01  1300.94
                             1360.37  1372.01  1462.38  1496.61  1532.65
                             1569.53  1588.21  1609.42  1633.30  1647.35
                             1649.45  1671.82  1691.87  1704.21  1742.55
                             1770.48  1791.41  1805.18  1853.95  1885.49
                             1896.11  1904.67  1924.91  1943.58  1981.47
                             2010.99  2040.21  2058.84  2087.81  2149.04
                             2151.06  2158.92  2162.91  2168.18  2180.11
                             2197.19  2300.27  2314.74  2370.30  4305.21
                             4308.78  4329.38  4401.40  4403.90  4485.68
                             4510.20  4510.92  4553.67  4555.25  4701.23
                             4760.52  5022.85  5169.64

 Zero-point correction=                           0.258384 (Hartree/Particle)
 Thermal correction to Energy=                    0.275401
 Thermal correction to Enthalpy=                  0.276345
 Thermal correction to Gibbs Free Energy=         0.211613
 Sum of electronic and zero-point Energies=          -1633.639422
 Sum of electronic and thermal Energies=             -1633.622404
 Sum of electronic and thermal Enthalpies=           -1633.621460
 Sum of electronic and thermal Free Energies=        -1633.686193

                     E (Thermal)             CV                S
                      KCal/Mol        Cal/Mol-Kelvin    Cal/Mol-Kelvin
 Total                  172.817             65.430            136.242
 Electronic               0.000              0.000              0.000
 Translational            0.889              2.981             43.013
 Rotational               0.889              2.981             34.453
 Vibrational            171.039             59.469             58.776
 Vibration     1          0.593              1.985              6.231
 Vibration     2          0.594              1.983              5.657
 Vibration     3          0.596              1.977              4.746
 Vibration     4          0.596              1.975              4.564
 Vibration     5          0.598              1.967              4.094
 Vibration     6          0.606              1.942              3.286
 Vibration     7          0.620              1.898              2.618
 Vibration     8          0.622              1.891              2.544
 Vibration     9          0.643              1.823              2.029
 Vibration    10          0.649              1.805              1.930
 Vibration    11          0.673              1.731              1.604
 Vibration    12          0.680              1.712              1.537
 Vibration    13          0.695              1.667              1.397
 Vibration    14          0.704              1.641              1.324
 Vibration    15          0.708              1.630              1.295
 Vibration    16          0.721              1.593              1.206
 Vibration    17          0.736              1.552              1.116
 Vibration    18          0.751              1.510              1.034
 Vibration    19          0.798              1.389              0.835
 Vibration    20          0.809              1.360              0.794
 Vibration    21          0.828              1.314              0.735
 Vibration    22          0.836              1.294              0.710
 Vibration    23          0.855              1.251              0.660
 Vibration    24          0.861              1.236              0.643
 Vibration    25          0.885              1.184              0.588
 Vibration    26          0.919              1.110              0.517
 Vibration    27          0.957              1.033              0.451

                           ! Non-Optimized Parameters !
 Normal termination of Gaussian 16 at Fri May 27 00:27:26 2022.
