 Gaussian 16, Revision C.01,
 Gaussian 16:  ES64L-G16RevC.01  3-Jul-2019

 -----------------------------------------------------
 #m062X/gen 6D OPT Freq=noraman SCRF=(SMD,Solvent=h2o)
 -----------------------------------------------------

 ------------------
 HA.18.smd.a1f3.smd
 ------------------
 Symbolic Z-matrix:
 Charge =  0 Multiplicity = 1

 SCF Done:  E(RM062X) =  -1861.63944711     A.U. after   15 cycles
 SCF Done:  E(RM062X) =  -1861.63978612     A.U. after   13 cycles
 SCF Done:  E(RM062X) =  -1861.63987517     A.U. after   14 cycles
 SCF Done:  E(RM062X) =  -1861.63992380     A.U. after   12 cycles
 SCF Done:  E(RM062X) =  -1861.63996315     A.U. after   13 cycles
 SCF Done:  E(RM062X) =  -1861.63998778     A.U. after   13 cycles
 SCF Done:  E(RM062X) =  -1861.63999468     A.U. after   13 cycles
 SCF Done:  E(RM062X) =  -1861.63999885     A.U. after   12 cycles
 SCF Done:  E(RM062X) =  -1861.64004642     A.U. after   14 cycles
 SCF Done:  E(RM062X) =  -1861.64004431     A.U. after   13 cycles
 SCF Done:  E(RM062X) =  -1861.64012864     A.U. after   12 cycles
 SCF Done:  E(RM062X) =  -1861.64013401     A.U. after   11 cycles
 SCF Done:  E(RM062X) =  -1861.64013366     A.U. after   11 cycles
 SCF Done:  E(RM062X) =  -1861.64013323     A.U. after   10 cycles
 SCF Done:  E(RM062X) =  -1861.64013386     A.U. after   10 cycles
 SCF Done:  E(RM062X) =  -1861.64013275     A.U. after   10 cycles
 SCF Done:  E(RM062X) =  -1861.64013267     A.U. after    9 cycles
 SCF Done:  E(RM062X) =  -1861.64013401     A.U. after   11 cycles
 SCF Done:  E(RM062X) =  -1861.64013258     A.U. after   11 cycles
 Optimization completed.
    -- Stationary point found.
 Normal termination of Gaussian 16 at Fri May 27 01:01:10 2022.

 ------------------------------------------------------------------
 #N Geom=AllCheck Guess=TCheck SCRF=Check GenChk RM062X/ChkBas Freq
 ------------------------------------------------------------------

 Structure from the checkpoint file:  "/jobfs/41413714.gadi-pbs/Gau-407663.chk"
 ------------------
 HA.18.smd.a1f3.smd
 ------------------
 Charge =  0 Multiplicity = 1

                         Standard orientation:
 ---------------------------------------------------------------------
 Center     Atomic      Atomic             Coordinates (Angstroms)
 Number     Number       Type             X           Y           Z
 ---------------------------------------------------------------------
      1          6           0       -3.166166   -0.218372    0.045524
      2         16           0       -4.320554   -1.540046    0.182439
      3          8           0       -3.676245   -2.679664   -0.455701
      4          8           0       -4.749979   -1.604630    1.574164
      5          7           0       -5.650473   -1.170137   -0.698822
      6          1           0       -5.443029   -1.034226   -1.690412
      7          1           0       -6.174416   -0.383031   -0.310859
      8          8           0       -3.509921    0.953105    0.648881
      9          6           0       -2.512628    1.826051    0.402070
     10          6           0       -1.556723    1.216047   -0.352942
     11          6           0       -1.975700   -0.130884   -0.594780
     12         16           0       -0.065830    1.968195   -0.893591
     13          6           0        1.201934    1.270465    0.113589
     14          8           0       -0.183069    3.400718   -0.589416
     15          8           0        0.156933    1.546441   -2.283009
     16          6           0        1.468289    1.840290    1.358375
     17          6           0        2.434778    1.256548    2.162750
     18          6           0        3.119490    0.119100    1.719019
     19          6           0        2.853345   -0.456269    0.463754
     20          6           0        1.873161    0.131445   -0.329525
     21          8           0        4.063177   -0.479914    2.490357
     22          6           0        3.607110   -1.672832   -0.007806
     23          7           0        4.928339   -1.358399   -0.569280
     24          6           0        4.779547   -0.599586   -1.809049
     25          6           0        5.605082   -2.618671   -0.868659
     26          1           0       -2.614381    2.819215    0.816237
     27          1           0       -1.466297   -0.903198   -1.156061
     28          1           0        0.933032    2.723262    1.695046
     29          1           0        2.668334    1.672867    3.138652
     30          1           0        1.643732   -0.300862   -1.300825
     31          1           0        4.145017   -0.018383    3.342702
     32          1           0        2.991488   -2.198474   -0.759497
     33          1           0        3.753776   -2.357529    0.832639
     34          1           0        4.316836    0.371335   -1.615526
     35          1           0        4.161110   -1.141147   -2.547301
     36          1           0        5.765589   -0.424756   -2.247508
     37          1           0        5.732246   -3.201814    0.047493
     38          1           0        6.592144   -2.415407   -1.292194
     39          1           0        5.035622   -3.226897   -1.593588
 ---------------------------------------------------------------------

 SCF Done:  E(RM062X) =  -1861.64013258     A.U. after    1 cycles

 The electronic state is 1-A.
 Alpha  occ. eigenvalues --  -90.19927 -90.17183 -19.76319 -19.68889 -19.67292
 Alpha  occ. eigenvalues --  -19.67217 -19.66349 -19.66315 -14.81102 -14.76050
 Alpha  occ. eigenvalues --  -10.65727 -10.65300 -10.63791 -10.60678 -10.60136
 Alpha  occ. eigenvalues --  -10.59506 -10.58314 -10.58147 -10.57372 -10.57308
 Alpha  occ. eigenvalues --  -10.56816 -10.55508 -10.55426  -8.50785  -8.48422
 Alpha  occ. eigenvalues --   -6.42982  -6.42974  -6.42909  -6.40619  -6.40558
 Alpha  occ. eigenvalues --   -6.40476  -1.29480  -1.27138  -1.25221  -1.19947
 Alpha  occ. eigenvalues --   -1.15992  -1.14478  -1.04212  -1.03438  -0.98758
 Alpha  occ. eigenvalues --   -0.96092  -0.91164  -0.89133  -0.87562  -0.80941
 Alpha  occ. eigenvalues --   -0.79375  -0.78853  -0.78124  -0.73618  -0.71820
 Alpha  occ. eigenvalues --   -0.69981  -0.69119  -0.67614  -0.64997  -0.63195
 Alpha  occ. eigenvalues --   -0.62537  -0.61689  -0.60867  -0.58937  -0.58427
 Alpha  occ. eigenvalues --   -0.57745  -0.57472  -0.55646  -0.55120  -0.54362
 Alpha  occ. eigenvalues --   -0.53885  -0.53223  -0.51656  -0.51496  -0.50394
 Alpha  occ. eigenvalues --   -0.50226  -0.49611  -0.47353  -0.46680  -0.45127
 Alpha  occ. eigenvalues --   -0.44934  -0.44456  -0.43665  -0.43517  -0.42962
 Alpha  occ. eigenvalues --   -0.42608  -0.42348  -0.41940  -0.41502  -0.41311
 Alpha  occ. eigenvalues --   -0.40601  -0.40373  -0.39974  -0.38571  -0.38018
 Alpha  occ. eigenvalues --   -0.33039  -0.32576  -0.29879  -0.28830
 Alpha virt. eigenvalues --   -0.02296  -0.00890   0.00229   0.00731   0.01879
 Alpha virt. eigenvalues --    0.02374   0.02674   0.03245   0.03388   0.03862
 Alpha virt. eigenvalues --    0.04131   0.04212   0.04552   0.05003   0.05342

 Mulliken charges:
               1
     1  C   -0.968056
     2  S    1.905152
     3  O   -0.625050
     4  O   -0.585589
     5  N   -0.988526
     6  H    0.504880
     7  H    0.511107
     8  O   -0.205899
     9  C   -0.042193
    10  C   -0.808970
    11  C    0.681870
    12  S    0.758826
    13  C   -0.066582
    14  O   -0.549267
    15  O   -0.487990
    16  C   -0.240704
    17  C   -0.217689
    18  C   -0.240190
    19  C   -0.055360
    20  C   -0.067250
    21  O   -0.738643
    22  C   -0.024998
    23  N   -0.383769
    24  C   -0.528287
    25  C   -0.488698
    26  H    0.326039
    27  H    0.333695
    28  H    0.288807
    29  H    0.271839
    30  H    0.287320
    31  H    0.586131
    32  H    0.236466
    33  H    0.246077
    34  H    0.243877
    35  H    0.221241
    36  H    0.230982
    37  H    0.228863
    38  H    0.230845
    39  H    0.219695
 Sum of Mulliken charges =  -0.00000

 Dipole moment (field-independent basis, Debye):
    X=              0.4111    Y=              2.0257    Z=              2.5162  Tot=              3.2563
 Quadrupole moment (field-independent basis, Debye-Ang):
   XX=           -134.6827   YY=           -172.8090   ZZ=           -142.5837
   XY=            -28.6515   XZ=             25.8901   YZ=             23.3793

  Exact polarizability:     334.995     -22.044     310.530      12.726      19.756     295.807
 Approx polarizability:     271.999     -23.260     267.730       5.228      20.203     263.288

                      1                      2                      3
                      A                      A                      A
 Frequencies --      9.9452                20.4744                39.5145
 Red. masses --      5.4924                 7.0513                 5.6338
 Frc consts  --      0.0003                 0.0017                 0.0052
 IR Inten    --      0.0870                 4.4718                 4.3117

                      4                      5                      6
                      A                      A                      A
 Frequencies --     51.1941                58.9338                61.6294
 Red. masses --      4.3952                 6.0075                 2.9518
 Frc consts  --      0.0068                 0.0123                 0.0066
 IR Inten    --      7.3254                 5.5489                 3.2860

                      7                      8                      9
                      A                      A                      A
 Frequencies --     88.8996                94.2367                96.9280
 Red. masses --      7.4736                 5.2021                 4.8165
 Frc consts  --      0.0348                 0.0272                 0.0267
 IR Inten    --     15.8662                 3.4637                12.1018

                     10                     11                     12
                      A                      A                      A
 Frequencies --    127.2509               153.9979               184.1070
 Red. masses --      6.3647                 5.8918                 8.3644
 Frc consts  --      0.0607                 0.0823                 0.1670
 IR Inten    --      1.3350                 2.5286                 3.4567

                     13                     14                     15
                      A                      A                      A
 Frequencies --    209.9350               234.5804               252.2812
 Red. masses --      5.9673                 9.5720                 3.1049
 Frc consts  --      0.1550                 0.3103                 0.1164
 IR Inten    --      5.4413                 2.5261                 5.5755

                     16                     17                     18
                      A                      A                      A
 Frequencies --    269.2712               275.5130               290.4076
 Red. masses --      1.2131                 3.0025                 2.7558
 Frc consts  --      0.0518                 0.1343                 0.1369
 IR Inten    --      0.1946                 0.3664                12.8703

                     19                     20                     21
                      A                      A                      A
 Frequencies --    307.3982               313.3297               327.4325
 Red. masses --      2.4034                 2.4351                 1.9308
 Frc consts  --      0.1338                 0.1409                 0.1220
 IR Inten    --      5.8567                17.8735                15.4710

                     22                     23                     24
                      A                      A                      A
 Frequencies --    340.0977               358.7134               379.4432
 Red. masses --      4.0368                 4.1149                 6.3770
 Frc consts  --      0.2751                 0.3120                 0.5410
 IR Inten    --     18.8106                 2.4743                 1.3254

                     25                     26                     27
                      A                      A                      A
 Frequencies --    398.9147               409.0459               432.1625
 Red. masses --      3.9183                 5.4731                 1.4212
 Frc consts  --      0.3674                 0.5395                 0.1564
 IR Inten    --      9.0127                18.7401               174.7043

                     28                     29                     30
                      A                      A                      A
 Frequencies --    434.8507               441.3905               450.9630
 Red. masses --      1.7543                 3.0710                 2.0493
 Frc consts  --      0.1954                 0.3525                 0.2455
 IR Inten    --     42.0377                35.3405                33.4592

                     31                     32                     33
                      A                      A                      A
 Frequencies --    466.8460               491.8053               495.3081
 Red. masses --      4.0948                 7.8908                 4.3153
 Frc consts  --      0.5258                 1.1245                 0.6238
 IR Inten    --     18.5722               113.3242                21.4943

                     34                     35                     36
                      A                      A                      A
 Frequencies --    512.0054               524.7006               549.8280
 Red. masses --      3.4794                 9.4520                 4.6965
 Frc consts  --      0.5374                 1.5332                 0.8365
 IR Inten    --      3.7570                75.7170                49.5366

                     37                     38                     39
                      A                      A                      A
 Frequencies --    599.9527               616.6950               623.2075
 Red. masses --      5.7012                 6.2442                 3.5405
 Frc consts  --      1.2091                 1.3992                 0.8102
 IR Inten    --     14.1381               300.5669               127.3667

                     40                     41                     42
                      A                      A                      A
 Frequencies --    646.9771               658.3987               690.7713
 Red. masses --      6.1032                 5.7097                 6.6300
 Frc consts  --      1.5052                 1.4583                 1.8640
 IR Inten    --    100.1436                62.0217               288.3837

                     43                     44                     45
                      A                      A                      A
 Frequencies --    702.4538               754.9733               807.0763
 Red. masses --      2.1053                 4.2705                 4.1128
 Frc consts  --      0.6121                 1.4342                 1.5784
 IR Inten    --    707.4232                 5.3590                15.9699

                     46                     47                     48
                      A                      A                      A
 Frequencies --    847.7685               867.8537               882.9701
 Red. masses --      1.5771                 1.3641                 1.5322
 Frc consts  --      0.6678                 0.6053                 0.7038
 IR Inten    --     47.7580                 2.6845                49.3689

                     49                     50                     51
                      A                      A                      A
 Frequencies --    883.6461               904.1799               922.6149
 Red. masses --      3.2657                 3.1434                 4.8680
 Frc consts  --      1.5024                 1.5141                 2.4414
 IR Inten    --     43.0063                50.9208                77.7578

                     52                     53                     54
                      A                      A                      A
 Frequencies --    945.7797               950.4313               966.7032
 Red. masses --      1.4969                 5.2317                 6.1575
 Frc consts  --      0.7889                 2.7844                 3.3903
 IR Inten    --     17.3410                34.9089                26.3782

                     55                     56                     57
                      A                      A                      A
 Frequencies --    988.6773               999.7124              1055.0347
 Red. masses --      1.3410                 1.7860                 2.2462
 Frc consts  --      0.7723                 1.0517                 1.4731
 IR Inten    --      1.5450                10.2243                65.4799

                     58                     59                     60
                      A                      A                      A
 Frequencies --   1072.6110              1091.3244              1107.3556
 Red. masses --      1.5391                 2.4423                 2.8564
 Frc consts  --      1.0433                 1.7138                 2.0637
 IR Inten    --     30.7770               205.5966               253.5764

                     61                     62                     63
                      A                      A                      A
 Frequencies --   1119.6485              1128.7837              1133.8440
 Red. masses --      2.0910                 1.2688                 1.2576
 Frc consts  --      1.5445                 0.9525                 0.9526
 IR Inten    --    478.9083                14.2403                 2.0061

                     64                     65                     66
                      A                      A                      A
 Frequencies --   1147.3735              1156.0767              1181.0335
 Red. masses --      5.8371                 2.2693                 2.9419
 Frc consts  --      4.5275                 1.7870                 2.4177
 IR Inten    --    417.4798                94.6515                94.6955

                     67                     68                     69
                      A                      A                      A
 Frequencies --   1185.2400              1191.5039              1221.1024
 Red. masses --      1.3886                 1.2253                 2.0424
 Frc consts  --      1.1493                 1.0249                 1.7943
 IR Inten    --     21.2241                32.1309                37.7975

                     70                     71                     72
                      A                      A                      A
 Frequencies --   1236.0740              1252.1349              1268.9530
 Red. masses --      4.3391                 2.3868                 3.0037
 Frc consts  --      3.9061                 2.2048                 2.8497
 IR Inten    --      5.6276               121.8422               128.8783

                     73                     74                     75
                      A                      A                      A
 Frequencies --   1271.0614              1289.9814              1299.6626
 Red. masses --      7.4236                 3.0876                 2.5213
 Frc consts  --      7.0664                 3.0272                 2.5092
 IR Inten    --    383.8585               175.0431                54.3762

                     76                     77                     78
                      A                      A                      A
 Frequencies --   1303.2270              1332.9578              1339.5953
 Red. masses --      1.6987                12.0334                 1.2804
 Frc consts  --      1.6998                12.5971                 1.3538
 IR Inten    --    148.4218               568.6671                17.2944

                     79                     80                     81
                      A                      A                      A
 Frequencies --   1380.8164              1406.7970              1417.0568
 Red. masses --      4.1930                 4.6970                 1.4987
 Frc consts  --      4.7103                 5.4769                 1.7732
 IR Inten    --     26.4889                17.0226                38.2659

                     82                     83                     84
                      A                      A                      A
 Frequencies --   1457.4767              1474.8038              1484.5010
 Red. masses --      1.1725                 2.6109                 1.3717
 Frc consts  --      1.4674                 3.3459                 1.7810
 IR Inten    --      1.5904                51.1973                10.6881

                     85                     86                     87
                      A                      A                      A
 Frequencies --   1500.1339              1503.1573              1508.3919
 Red. masses --      1.0466                 1.1010                 1.0671
 Frc consts  --      1.3877                 1.4658                 1.4305
 IR Inten    --      5.4817                 1.6810                14.9736

                     88                     89                     90
                      A                      A                      A
 Frequencies --   1513.6924              1518.2479              1541.7258
 Red. masses --      1.0475                 1.0552                 2.9128
 Frc consts  --      1.4141                 1.4331                 4.0792
 IR Inten    --     19.4117                32.5105               110.0388

                     91                     92                     93
                      A                      A                      A
 Frequencies --   1557.7238              1590.7959              1644.6033
 Red. masses --      6.2310                 1.1004                 7.0650
 Frc consts  --      8.9082                 1.6407                11.2586
 IR Inten    --     76.3387               116.0479                86.0913

                     94                     95                     96
                      A                      A                      A
 Frequencies --   1660.1201              1681.5141              3000.8127
 Red. masses --      6.3143                 7.2331                 1.0571
 Frc consts  --     10.2531                12.0497                 5.6085
 IR Inten    --    160.7774                63.8970               112.0565

                     97                     98                     99
                      A                      A                      A
 Frequencies --   3002.7934              3004.5952              3130.4292
 Red. masses --      1.0717                 1.0569                 1.0764
 Frc consts  --      5.6932                 5.6214                 6.2148
 IR Inten    --     95.2087               180.3197                45.7362

                    100                    101                    102
                      A                      A                      A
 Frequencies --   3135.5059              3138.0383              3176.0804
 Red. masses --      1.0775                 1.0877                 1.1051
 Frc consts  --      6.2414                 6.3105                 6.5681
 IR Inten    --     51.5528                22.1228                37.4210

                    103                    104                    105
                      A                      A                      A
 Frequencies --   3177.7017              3229.2894              3237.8694
 Red. masses --      1.1041                 1.0920                 1.0904
 Frc consts  --      6.5688                 6.7096                 6.7353
 IR Inten    --     40.3891                 1.9032                 1.3877

                    106                    107                    108
                      A                      A                      A
 Frequencies --   3250.5212              3308.8965              3332.2909
 Red. masses --      1.0963                 1.1010                 1.1026
 Frc consts  --      6.8246                 7.1027                 7.2135
 IR Inten    --      4.0762                34.2436                37.1588

                    109                    110                    111
                      A                      A                      A
 Frequencies --   3501.5484              3604.4297              3752.4018
 Red. masses --      1.0480                 1.0995                 1.0673
 Frc consts  --      7.5709                 8.4159                 8.8543
 IR Inten    --    172.2545               183.2464               275.1969

 - Thermochemistry -
 -------------------
 Temperature   298.150 Kelvin.  Pressure   1.00000 Atm.
 Atom     1 has atomic number  6 and mass  12.00000

 Molecular mass:   360.04498 amu.
 Principal axes and moments of inertia in atomic units:
                           1         2         3
     Eigenvalues --  5215.59693********************
           X            0.99980  -0.01944  -0.00477
           Y            0.01968   0.99816   0.05736
           Z            0.00364  -0.05744   0.99834
 This molecule is an asymmetric top.
 Rotational symmetry number  1.
 Warning -- assumption of classical behavior for rotation
           may cause significant error
 Rotational temperatures (Kelvin)      0.01661     0.00519     0.00472
 Rotational constants (GHZ):           0.34603     0.10819     0.09842
 Zero-point vibrational energy     781302.2 (Joules/Mol)
                                  186.73570 (Kcal/Mol)
 Warning -- explicit consideration of  38 degrees of freedom as
           vibrations may cause significant error
 Vibrational temperatures:     14.31    29.46    56.85    73.66    84.79
          (Kelvin)             88.67   127.91   135.59   139.46   183.09
                              221.57   264.89   302.05   337.51   362.98
                              387.42   396.40   417.83   442.28   450.81
                              471.10   489.32   516.11   545.93   573.95
                              588.53   621.79   625.65   635.06   648.84
                              671.69   707.60   712.64   736.66   754.93
                              791.08   863.20   887.29   896.66   930.86
                              947.29   993.87  1010.67  1086.24  1161.20
                             1219.75  1248.65  1270.40  1271.37  1300.91
                             1327.44  1360.77  1367.46  1390.87  1422.49
                             1438.36  1517.96  1543.25  1570.17  1593.24
                             1610.92  1624.07  1631.35  1650.81  1663.34
                             1699.24  1705.30  1714.31  1756.89  1778.43
                             1801.54  1825.74  1828.77  1856.00  1869.92
                             1875.05  1917.83  1927.38  1986.69  2024.07
                             2038.83  2096.98  2121.91  2135.87  2158.36
                             2162.71  2170.24  2177.87  2184.42  2218.20
                             2241.22  2288.80  2366.22  2388.54  2419.32
                             4317.50  4320.35  4322.94  4503.99  4511.29
                             4514.94  4569.67  4572.00  4646.23  4658.57
                             4676.78  4760.76  4794.42  5037.95  5185.97
                             5398.87

 Zero-point correction=                           0.297582 (Hartree/Particle)
 Thermal correction to Energy=                    0.320003
 Thermal correction to Enthalpy=                  0.320947
 Thermal correction to Gibbs Free Energy=         0.243101
 Sum of electronic and zero-point Energies=          -1861.342550
 Sum of electronic and thermal Energies=             -1861.320130
 Sum of electronic and thermal Enthalpies=           -1861.319186
 Sum of electronic and thermal Free Energies=        -1861.397032

                     E (Thermal)             CV                S
                      KCal/Mol        Cal/Mol-Kelvin    Cal/Mol-Kelvin
 Total                  200.805             84.342            163.841
 Electronic               0.000              0.000              0.000
 Translational            0.889              2.981             43.537
 Rotational               0.889              2.981             35.721
 Vibrational            199.027             78.381             84.583
 Vibration     1          0.593              1.987              8.022
 Vibration     2          0.593              1.986              6.588
 Vibration     3          0.594              1.981              5.283
 Vibration     4          0.595              1.977              4.771
 Vibration     5          0.596              1.974              4.493
 Vibration     6          0.597              1.973              4.404
 Vibration     7          0.602              1.957              3.684
 Vibration     8          0.603              1.953              3.570
 Vibration     9          0.603              1.951              3.515
 Vibration    10          0.611              1.926              2.987
 Vibration    11          0.620              1.898              2.622
 Vibration    12          0.631              1.861              2.286
 Vibration    13          0.642              1.826              2.044
 Vibration    14          0.654              1.788              1.844
 Vibration    15          0.664              1.759              1.715
 Vibration    16          0.674              1.730              1.601
 Vibration    17          0.677              1.719              1.561
 Vibration    18          0.686              1.692              1.472
 Vibration    19          0.697              1.660              1.376
 Vibration    20          0.701              1.648              1.345
 Vibration    21          0.711              1.621              1.273
 Vibration    22          0.720              1.595              1.212
 Vibration    23          0.734              1.557              1.128
 Vibration    24          0.749              1.514              1.041
 Vibration    25          0.765              1.472              0.967
 Vibration    26          0.773              1.451              0.930
 Vibration    27          0.793              1.400              0.852
 Vibration    28          0.795              1.394              0.843
 Vibration    29          0.801              1.380              0.822
 Vibration    30          0.810              1.359              0.793
 Vibration    31          0.824              1.324              0.746
 Vibration    32          0.848              1.268              0.679
 Vibration    33          0.851              1.260              0.670
 Vibration    34          0.867              1.223              0.629
 Vibration    35          0.880              1.195              0.599
 Vibration    36          0.905              1.140              0.545
 Vibration    37          0.958              1.032              0.450
 Vibration    38          0.976              0.997              0.422

 Optimization completed.
    -- Stationary point found.
 Normal termination of Gaussian 16 at Fri May 27 01:33:00 2022.
