 Gaussian 16, Revision C.01,
 Gaussian 16:  ES64L-G16RevC.01  3-Jul-2019

 ----------------------------------------------------------------------
 #m062X/gen 6D OPT Freq=Noraman INT(grid=ultrafine) SCRF=(SMD,Solvent=h
 2o)
 ----------------------------------------------------------------------

 -----
 a3 b1
 -----
 Symbolic Z-matrix:
 Charge =  0 Multiplicity = 1

 SCF Done:  E(RM062X) =  -941.954422312     A.U. after   13 cycles
 SCF Done:  E(RM062X) =  -941.954427859     A.U. after    8 cycles
 SCF Done:  E(RM062X) =  -941.954428151     A.U. after    8 cycles
 Optimization completed.
    -- Stationary point found.
 Normal termination of Gaussian 16 at Thu May 19 20:12:18 2022.

 ------------------------------------------------------------------
 #N Geom=AllCheck Guess=TCheck SCRF=Check GenChk RM062X/ChkBas Freq
 ------------------------------------------------------------------

 Structure from the checkpoint file:  "/jobfs/40665760.gadi-pbs/Gau-1448190.chk"
 -----
 a3 b1
 -----
 Charge =  0 Multiplicity = 1

                         Standard orientation:
 ---------------------------------------------------------------------
 Center     Atomic      Atomic             Coordinates (Angstroms)
 Number     Number       Type             X           Y           Z
 ---------------------------------------------------------------------
      1          6           0        0.997761    0.038404   -0.000034
      2         16           0       -0.845337   -0.169589    0.000068
      3          8           0       -1.149980   -0.806013   -1.268466
      4          8           0       -1.150215   -0.804495    1.269284
      5          7           0       -1.467425    1.323687   -0.000848
      6          1           0       -1.309630    1.855604   -0.859180
      7          1           0       -1.309733    1.856707    0.856824
      8          9           0        1.576310   -1.155171   -0.000169
      9          9           0        1.369084    0.710196    1.083173
     10          9           0        1.369241    0.710413   -1.082908
 ---------------------------------------------------------------------

 SCF Done:  E(RM062X) =  -941.954428151     A.U. after    1 cycles

 The electronic state is 1-A.
 Alpha  occ. eigenvalues --  -90.20640 -25.34054 -25.34050 -25.34037 -19.68646
 Alpha  occ. eigenvalues --  -19.68644 -14.82386 -10.85314  -8.51660  -6.43836
 Alpha  occ. eigenvalues --   -6.43836  -6.43761  -1.51069  -1.41736  -1.41724
 Alpha  occ. eigenvalues --   -1.28832  -1.17474  -1.05735  -0.87948  -0.78740
 Alpha  occ. eigenvalues --   -0.73304  -0.73169  -0.71694  -0.64243  -0.62905
 Alpha  occ. eigenvalues --   -0.60498  -0.60384  -0.57950  -0.57168  -0.56921
 Alpha  occ. eigenvalues --   -0.56122  -0.54747  -0.46289  -0.44679  -0.42511
 Alpha  occ. eigenvalues --   -0.42146  -0.40084
 Alpha virt. eigenvalues --    0.01089   0.03250   0.03579   0.03854   0.06701
 Alpha virt. eigenvalues --    0.07448   0.07558   0.07897   0.09202   0.09253
 Alpha virt. eigenvalues --    0.11776   0.13549   0.13603   0.13919   0.16841

 Mulliken charges:
               1
     1  C    0.771468
     2  S    1.204365
     3  O   -0.615736
     4  O   -0.615698
     5  N   -0.983343
     6  H    0.515008
     7  H    0.515029
     8  F   -0.269791
     9  F   -0.260708
    10  F   -0.260594
 Sum of Mulliken charges =   0.00000

 Dipole moment (field-independent basis, Debye):
    X=              0.8777    Y=              6.1272    Z=             -0.0040  Tot=              6.1897
 Quadrupole moment (field-independent basis, Debye-Ang):
   XX=            -54.7098   YY=            -45.6821   ZZ=            -55.4488
   XY=             -7.0243   XZ=              0.0034   YZ=             -0.0068

  Exact polarizability:      59.369      -1.822      60.536      -0.001       0.003      63.163
 Approx polarizability:      51.873      -1.300      56.270      -0.002       0.004      61.953

                      1                      2                      3
                      A                      A                      A
 Frequencies --     53.9380               179.1975               187.8712
 Red. masses --     11.1770                 6.5501                11.5012
 Frc consts  --      0.0192                 0.1239                 0.2392
 IR Inten    --      5.3497                33.0001                13.9459

                      4                      5                      6
                      A                      A                      A
 Frequencies --    299.7780               315.7140               325.5042
 Red. masses --     11.0231                 2.7265                10.2109
 Frc consts  --      0.5837                 0.1601                 0.6374
 IR Inten    --      0.8849                14.0101                18.4413

                      7                      8                      9
                      A                      A                      A
 Frequencies --    391.7196               452.1833               477.2235
 Red. masses --      2.1411                 2.5219                13.4273
 Frc consts  --      0.1936                 0.3038                 1.8017
 IR Inten    --      4.1950                33.7694                68.0666

                     10                     11                     12
                      A                      A                      A
 Frequencies --    550.9935               554.7130               567.2917
 Red. masses --      2.4996                15.2922                 3.4241
 Frc consts  --      0.4471                 2.7724                 0.6493
 IR Inten    --    127.1615                 0.1901                74.7990

                     13                     14                     15
                      A                      A                      A
 Frequencies --    596.6466               783.4377               925.5785
 Red. masses --      7.8452                15.6190                 4.9317
 Frc consts  --      1.6455                 5.6482                 2.4893
 IR Inten    --    547.8361                 3.6727               105.6457

                     16                     17                     18
                      A                      A                      A
 Frequencies --   1100.1459              1138.9930              1245.9759
 Red. masses --      1.2535                13.5788                14.4614
 Frc consts  --      0.8939                10.3789                13.2275
 IR Inten    --      0.4856               411.4041                64.9234

                     19                     20                     21
                      A                      A                      A
 Frequencies --   1257.0698              1261.5305              1359.7016
 Red. masses --     13.1947                13.4773                14.4206
 Frc consts  --     12.2848                12.6371                15.7080
 IR Inten    --    310.0251               454.9937               623.5988

                     22                     23                     24
                      A                      A                      A
 Frequencies --   1576.4888              3478.6210              3587.4197
 Red. masses --      1.1080                 1.0469                 1.1037
 Frc consts  --      1.6225                 7.4641                 8.3687
 IR Inten    --    125.2742               226.6255               248.6459

 - Thermochemistry -
 -------------------
 Temperature   298.150 Kelvin.  Pressure   1.00000 Atm.
 Atom     1 has atomic number  6 and mass  12.00000

 Molecular mass:   148.97583 amu.
 Principal axes and moments of inertia in atomic units:
                           1         2         3
     Eigenvalues --   696.238971165.722121166.25771
           X            0.99925  -0.00093  -0.03867
           Y            0.03868   0.02474   0.99895
           Z           -0.00002   0.99969  -0.02476
 This molecule is an asymmetric top.
 Rotational symmetry number  1.
 Warning -- assumption of classical behavior for rotation
           may cause significant error
 Rotational temperatures (Kelvin)      0.12440     0.07430     0.07427
 Rotational constants (GHZ):           2.59213     1.54817     1.54746
 Zero-point vibrational energy     135583.2 (Joules/Mol)
                                   32.40516 (Kcal/Mol)
 Warning -- explicit consideration of  13 degrees of freedom as
           vibrations may cause significant error
 Vibrational temperatures:     77.60   257.83   270.30   431.31   454.24
          (Kelvin)            468.33   563.60   650.59   686.62   792.76
                              798.11   816.21   858.44  1127.19  1331.70
                             1582.86  1638.76  1792.68  1808.64  1815.06
                             1956.31  2268.22  5004.96  5161.50

 Zero-point correction=                           0.051641 (Hartree/Particle)
 Thermal correction to Energy=                    0.059453
 Thermal correction to Enthalpy=                  0.060398
 Thermal correction to Gibbs Free Energy=         0.018745
 Sum of electronic and zero-point Energies=           -941.902787
 Sum of electronic and thermal Energies=              -941.894975
 Sum of electronic and thermal Enthalpies=            -941.894031
 Sum of electronic and thermal Free Energies=         -941.935683

                     E (Thermal)             CV                S
                      KCal/Mol        Cal/Mol-Kelvin    Cal/Mol-Kelvin
 Total                   37.308             27.523             87.664
 Electronic               0.000              0.000              0.000
 Translational            0.889              2.981             40.906
 Rotational               0.889              2.981             28.339
 Vibrational             35.530             21.561             18.419
 Vibration     1          0.596              1.976              4.668
 Vibration     2          0.629              1.868              2.337
 Vibration     3          0.633              1.857              2.249
 Vibration     4          0.692              1.674              1.418
 Vibration     5          0.703              1.644              1.332
 Vibration     6          0.710              1.624              1.282
 Vibration     7          0.759              1.488              0.994
 Vibration     8          0.811              1.356              0.789
 Vibration     9          0.834              1.301              0.718
 Vibration    10          0.906              1.138              0.542
 Vibration    11          0.910              1.129              0.534
 Vibration    12          0.923              1.102              0.509
 Vibration    13          0.954              1.039              0.455

                           ! Non-Optimized Parameters !
 Normal termination of Gaussian 16 at Thu May 19 20:13:12 2022.
