 Gaussian 16, Revision C.01,
 Gaussian 16:  ES64L-G16RevC.01  3-Jul-2019

 -----------------------------------------------------
 #m062X/gen 6D OPT Freq=noraman SCRF=(SMD,Solvent=h2o)
 -----------------------------------------------------

 ----------------
 HA.22.smd.a1.smd
 ----------------
 Symbolic Z-matrix:
 Charge =  0 Multiplicity = 1

 SCF Done:  E(RM062X) =  -1991.76139317     A.U. after   17 cycles
 Optimization completed.
    -- Stationary point found.
 Normal termination of Gaussian 16 at Fri May 27 14:52:26 2022.

 ------------------------------------------------------------------
 #N Geom=AllCheck Guess=TCheck SCRF=Check GenChk RM062X/ChkBas Freq
 ------------------------------------------------------------------

 Structure from the checkpoint file:  "/jobfs/41479873.gadi-pbs/Gau-2976508.chk"
 ----------------
 HA.22.smd.a1.smd
 ----------------
 Charge =  0 Multiplicity = 1

                         Standard orientation:
 ---------------------------------------------------------------------
 Center     Atomic      Atomic             Coordinates (Angstroms)
 Number     Number       Type             X           Y           Z
 ---------------------------------------------------------------------
      1          6           0       -2.238629    0.258578   -0.113114
      2         16           0       -4.001686    0.316937   -0.238362
      3          8           0       -4.349953    1.651522   -0.709216
      4          8           0       -4.404523   -0.869366   -0.987094
      5          7           0       -4.642990    0.162951    1.264364
      6          1           0       -4.369126    0.928010    1.884549
      7          1           0       -4.439723   -0.746423    1.685060
      8         16           0       -1.419255   -1.259038   -0.188800
      9          6           0        0.073402   -0.424834    0.111160
     10          6           0       -0.060477    0.947528    0.226837
     11          6           0       -1.437750    1.335421    0.103911
     12         16           0        1.615032   -1.241593    0.154707
     13          7           0        0.975968    1.828851    0.359791
     14          1           0       -1.784864    2.361390    0.169246
     15          6           0        2.723594    0.156826   -0.126783
     16          6           0        2.270129    1.305196    0.774919
     17          8           0        1.871838   -1.801180    1.494847
     18          8           0        1.683281   -2.197930   -0.965749
     19          6           0        4.162759   -0.299253    0.146579
     20          6           0        5.165705    0.432394   -0.727860
     21          8           0        5.087271    1.831302   -0.463073
     22          1           0        0.726789    2.732575    0.748859
     23          1           0        2.578471    0.408924   -1.185036
     24          1           0        3.007260    2.103763    0.697622
     25          1           0        2.247359    0.960720    1.819391
     26          1           0        4.277992   -1.368225   -0.066830
     27          1           0        4.396366   -0.149444    1.206585
     28          1           0        4.947487    0.237433   -1.785141
     29          1           0        6.171598    0.059564   -0.504570
     30          1           0        5.748390    2.282283   -1.011159
 ---------------------------------------------------------------------

 SCF Done:  E(RM062X) =  -1991.76139317     A.U. after    1 cycles

 The electronic state is 1-A.
 Alpha  occ. eigenvalues --  -90.19793 -90.16291 -89.99524 -19.67217 -19.67156
 Alpha  occ. eigenvalues --  -19.66052 -19.65834 -19.65302 -14.81027 -14.79807
 Alpha  occ. eigenvalues --  -10.63845 -10.63605 -10.61582 -10.60419 -10.59900
 Alpha  occ. eigenvalues --  -10.59618 -10.59587 -10.56329  -8.50665  -8.47699
 Alpha  occ. eigenvalues --   -8.33801  -6.42861  -6.42848  -6.42780  -6.39860
 Alpha  occ. eigenvalues --   -6.39816  -6.39732  -6.25829  -6.25601  -6.25286
 Alpha  occ. eigenvalues --   -1.27391  -1.24624  -1.15915  -1.14928  -1.13526
 Alpha  occ. eigenvalues --   -1.08468  -1.04122  -1.01145  -0.94005  -0.89354
 Alpha  occ. eigenvalues --   -0.86496  -0.83924  -0.79768  -0.75388  -0.73866
 Alpha  occ. eigenvalues --   -0.69334  -0.68352  -0.64353  -0.63469  -0.62398
 Alpha  occ. eigenvalues --   -0.61742  -0.60674  -0.59452  -0.58923  -0.57200
 Alpha  occ. eigenvalues --   -0.56272  -0.55307  -0.54258  -0.53509  -0.51556
 Alpha  occ. eigenvalues --   -0.49941  -0.49559  -0.47987  -0.46975  -0.45549
 Alpha  occ. eigenvalues --   -0.45040  -0.44749  -0.44084  -0.43202  -0.42704
 Alpha  occ. eigenvalues --   -0.41849  -0.41793  -0.41122  -0.40740  -0.40182
 Alpha  occ. eigenvalues --   -0.39580  -0.38547  -0.36846  -0.35431  -0.33150
 Alpha  occ. eigenvalues --   -0.28043
 Alpha virt. eigenvalues --   -0.04110   0.00698   0.01425   0.02025   0.02728
 Alpha virt. eigenvalues --    0.02852   0.03377   0.03981   0.04114   0.04553
 Alpha virt. eigenvalues --    0.04990   0.05434   0.05470   0.05589   0.06159

 Mulliken charges:
               1
     1  C   -0.985966
     2  S    1.788631
     3  O   -0.596875
     4  O   -0.615747
     5  N   -0.971497
     6  H    0.508878
     7  H    0.511731
     8  S    0.388447
     9  C   -0.717702
    10  C    0.673424
    11  C   -1.055370
    12  S    1.682874
    13  N   -0.519798
    14  H    0.315642
    15  C   -0.811247
    16  C   -0.172754
    17  O   -0.491910
    18  O   -0.598319
    19  C   -0.364823
    20  C   -0.160815
    21  O   -0.817618
    22  H    0.496783
    23  H    0.343509
    24  H    0.298030
    25  H    0.298047
    26  H    0.270114
    27  H    0.283115
    28  H    0.226549
    29  H    0.224670
    30  H    0.569999
 Sum of Mulliken charges =   0.00000

 Dipole moment (field-independent basis, Debye):
    X=              7.0071    Y=              8.8724    Z=              4.9868  Tot=             12.3567
 Quadrupole moment (field-independent basis, Debye-Ang):
   XX=           -122.9408   YY=           -134.5586   ZZ=           -127.8292
   XY=             16.5587   XZ=            -35.6166   YZ=              3.7797

  Exact polarizability:     294.339       2.500     266.081       6.665       8.723     192.969
 Approx polarizability:     231.977       5.616     251.250       6.319       8.786     177.874

                      1                      2                      3
                      A                      A                      A
 Frequencies --     30.5767                43.1932                57.7393
 Red. masses --      6.9940                 6.2702                 4.6568
 Frc consts  --      0.0039                 0.0069                 0.0091
 IR Inten    --      5.6111                 9.4380                10.3978

                      4                      5                      6
                      A                      A                      A
 Frequencies --     70.6547                79.8299               112.2642
 Red. masses --      8.7668                 7.6418                 7.1968
 Frc consts  --      0.0258                 0.0287                 0.0534
 IR Inten    --     11.2317                 2.4817                16.5986

                      7                      8                      9
                      A                      A                      A
 Frequencies --    127.6731               155.0179               191.9277
 Red. masses --      4.8979                 4.8691                 6.7771
 Frc consts  --      0.0470                 0.0689                 0.1471
 IR Inten    --      8.3033                19.8600                 1.7451

                     10                     11                     12
                      A                      A                      A
 Frequencies --    202.6348               228.7253               235.0596
 Red. masses --      8.1811                 4.7864                 3.2278
 Frc consts  --      0.1979                 0.1475                 0.1051
 IR Inten    --      2.0199                36.4564                42.9962

                     13                     14                     15
                      A                      A                      A
 Frequencies --    248.4141               264.8439               291.0498
 Red. masses --      4.8494                 1.5733                 2.7086
 Frc consts  --      0.1763                 0.0650                 0.1352
 IR Inten    --     56.3340               107.6143                62.0330

                     16                     17                     18
                      A                      A                      A
 Frequencies --    304.2591               314.2792               320.4830
 Red. masses --      2.2192                 3.6237                 2.7244
 Frc consts  --      0.1210                 0.2109                 0.1649
 IR Inten    --     22.3365                17.9562                46.0802

                     19                     20                     21
                      A                      A                      A
 Frequencies --    377.9175               392.0126               410.3255
 Red. masses --      3.0096                 4.2465                 1.4926
 Frc consts  --      0.2533                 0.3845                 0.1481
 IR Inten    --     14.2779                64.2693               290.8632

                     22                     23                     24
                      A                      A                      A
 Frequencies --    417.4919               438.8015               450.9253
 Red. masses --      4.0234                 4.1027                 3.8780
 Frc consts  --      0.4132                 0.4654                 0.4646
 IR Inten    --      4.4267                 8.6733                80.3773

                     25                     26                     27
                      A                      A                      A
 Frequencies --    475.4336               491.4617               513.8018
 Red. masses --      7.2410                 3.2995                 8.3938
 Frc consts  --      0.9643                 0.4695                 1.3056
 IR Inten    --      4.9561                23.7349                67.9953

                     28                     29                     30
                      A                      A                      A
 Frequencies --    543.6886               564.8633               584.5214
 Red. masses --      5.7478                 5.7745                 8.7482
 Frc consts  --      1.0010                 1.0856                 1.7610
 IR Inten    --    140.6635                32.9594               106.0654

                     31                     32                     33
                      A                      A                      A
 Frequencies --    616.7204               667.4126               683.9680
 Red. masses --      5.9675                 4.3550                 3.6591
 Frc consts  --      1.3373                 1.1429                 1.0085
 IR Inten    --    154.8844                16.6025                50.1138

                     34                     35                     36
                      A                      A                      A
 Frequencies --    706.7684               730.5900               741.8853
 Red. masses --      2.4916                 3.4823                 4.9475
 Frc consts  --      0.7333                 1.0951                 1.6044
 IR Inten    --    623.4453               208.0290               131.1968

                     37                     38                     39
                      A                      A                      A
 Frequencies --    863.5160               883.2466               906.4827
 Red. masses --      2.2108                 1.5416                 2.6859
 Frc consts  --      0.9713                 0.7086                 1.3004
 IR Inten    --     30.0956                64.6075                18.9281

                     40                     41                     42
                      A                      A                      A
 Frequencies --    933.7059               974.2644              1005.0612
 Red. masses --      1.7246                 2.9509                 2.1834
 Frc consts  --      0.8859                 1.6503                 1.2995
 IR Inten    --      6.7568                27.3752                24.7277

                     43                     44                     45
                      A                      A                      A
 Frequencies --   1032.6921              1075.7048              1081.1233
 Red. masses --      3.1537                 6.3320                 3.1524
 Frc consts  --      1.9816                 4.3169                 2.1709
 IR Inten    --    142.3530                25.8065                38.0954

                     46                     47                     48
                      A                      A                      A
 Frequencies --   1101.5352              1112.7042              1126.3914
 Red. masses --      3.7812                 4.5909                 2.8458
 Frc consts  --      2.7032                 3.3489                 2.1273
 IR Inten    --    321.9814               458.6234                18.4234

                     49                     50                     51
                      A                      A                      A
 Frequencies --   1130.7957              1132.9439              1149.5773
 Red. masses --      1.2785                 2.9918                 7.6700
 Frc consts  --      0.9632                 2.2626                 5.9721
 IR Inten    --      7.2332                41.7554               426.4648

                     52                     53                     54
                      A                      A                      A
 Frequencies --   1165.4286              1210.7071              1229.4143
 Red. masses --      2.8977                 1.2230                 3.1390
 Frc consts  --      2.3188                 1.0562                 2.7954
 IR Inten    --     69.5663                56.6458               361.1176

                     55                     56                     57
                      A                      A                      A
 Frequencies --   1241.1202              1254.4309              1264.6732
 Red. masses --      1.8149                 1.2317                 1.4521
 Frc consts  --      1.6471                 1.1419                 1.3684
 IR Inten    --     87.2838                76.0546                59.6014

                     58                     59                     60
                      A                      A                      A
 Frequencies --   1307.9751              1317.3825              1326.2824
 Red. masses --      1.1987                 1.2297                11.1588
 Frc consts  --      1.2082                 1.2574                11.5648
 IR Inten    --      2.4441                12.6010               536.5436

                     61                     62                     63
                      A                      A                      A
 Frequencies --   1347.1515              1369.6073              1407.2082
 Red. masses --      1.2369                 1.6418                 1.4615
 Frc consts  --      1.3226                 1.8145                 1.7052
 IR Inten    --     55.4609                17.7764                 3.1318

                     64                     65                     66
                      A                      A                      A
 Frequencies --   1411.9523              1467.6567              1478.7816
 Red. masses --      1.9235                 1.4930                 1.0975
 Frc consts  --      2.2594                 1.8948                 1.4141
 IR Inten    --    154.0817                16.5188                13.0042

                     67                     68                     69
                      A                      A                      A
 Frequencies --   1502.8103              1522.4109              1531.0008
 Red. masses --      1.1720                 3.7344                 1.0864
 Frc consts  --      1.5595                 5.0995                 1.5003
 IR Inten    --     23.8451                16.3342                 2.4902

                     70                     71                     72
                      A                      A                      A
 Frequencies --   1555.0013              1590.4162              1643.9699
 Red. masses --      3.0969                 1.0985                 6.6491
 Frc consts  --      4.4120                 1.6371                10.5876
 IR Inten    --    283.1054               111.3548               316.0585

                     73                     74                     75
                      A                      A                      A
 Frequencies --   3063.2018              3076.5309              3094.1698
 Red. masses --      1.0727                 1.0578                 1.0625
 Frc consts  --      5.9304                 5.8989                 5.9935
 IR Inten    --     40.0212                69.7305                 5.8685

                     76                     77                     78
                      A                      A                      A
 Frequencies --   3113.2175              3122.8788              3145.3713
 Red. masses --      1.0852                 1.1067                 1.1051
 Frc consts  --      6.1969                 6.3589                 6.4415
 IR Inten    --      2.0171                59.8888                25.0925

                     79                     80                     81
                      A                      A                      A
 Frequencies --   3207.8488              3269.6552              3492.7626
 Red. masses --      1.0927                 1.0964                 1.0485
 Frc consts  --      6.6250                 6.9057                 7.5365
 IR Inten    --      0.5660                17.6509               161.0240

                     82                     83                     84
                      A                      A                      A
 Frequencies --   3595.3445              3603.5006              3799.9585
 Red. masses --      1.0991                 1.0780                 1.0670
 Frc consts  --      8.3708                 8.2476                 9.0776
 IR Inten    --    174.0616               190.4947               135.8055

 - Thermochemistry -
 -------------------
 Temperature   298.150 Kelvin.  Pressure   1.00000 Atm.
 Atom     1 has atomic number  6 and mass  12.00000

 Molecular mass:   311.99084 amu.
 Principal axes and moments of inertia in atomic units:
                           1         2         3
     Eigenvalues --  2191.80929********************
           X            0.99995   0.00598  -0.00834
           Y           -0.00591   0.99995   0.00822
           Z            0.00839  -0.00817   0.99993
 This molecule is an asymmetric top.
 Rotational symmetry number  1.
 Warning -- assumption of classical behavior for rotation
           may cause significant error
 Rotational temperatures (Kelvin)      0.03952     0.00757     0.00685
 Rotational constants (GHZ):           0.82340     0.15780     0.14280
 Zero-point vibrational energy     582143.4 (Joules/Mol)
                                  139.13562 (Kcal/Mol)
 Warning -- explicit consideration of  31 degrees of freedom as
           vibrations may cause significant error
 Vibrational temperatures:     43.99    62.15    83.07   101.66   114.86
          (Kelvin)            161.52   183.69   223.04   276.14   291.55
                              329.08   338.20   357.41   381.05   418.76
                              437.76   452.18   461.10   543.74   564.02
                              590.37   600.68   631.34   648.78   684.04
                              707.10   739.25   782.25   812.71   841.00
                              887.32   960.26   984.08  1016.88  1051.16
                             1067.41  1242.41  1270.79  1304.23  1343.39
                             1401.75  1446.06  1485.81  1547.70  1555.50
                             1584.86  1600.93  1620.63  1626.96  1630.05
                             1653.99  1676.79  1741.94  1768.85  1785.70
                             1804.85  1819.58  1881.88  1895.42  1908.22
                             1938.25  1970.56  2024.66  2031.48  2111.63
                             2127.64  2162.21  2190.41  2202.77  2237.30
                             2288.25  2365.31  4407.26  4426.44  4451.82
                             4479.23  4493.13  4525.49  4615.38  4704.30
                             5025.31  5172.90  5184.63  5467.29

 Zero-point correction=                           0.221727 (Hartree/Particle)
 Thermal correction to Energy=                    0.239872
 Thermal correction to Enthalpy=                  0.240816
 Thermal correction to Gibbs Free Energy=         0.174677
 Sum of electronic and zero-point Energies=          -1991.539666
 Sum of electronic and thermal Energies=             -1991.521521
 Sum of electronic and thermal Enthalpies=           -1991.520577
 Sum of electronic and thermal Free Energies=        -1991.586716

                     E (Thermal)             CV                S
                      KCal/Mol        Cal/Mol-Kelvin    Cal/Mol-Kelvin
 Total                  150.522             67.671            139.202
 Electronic               0.000              0.000              0.000
 Translational            0.889              2.981             43.110
 Rotational               0.889              2.981             34.115
 Vibrational            148.745             61.709             61.978
 Vibration     1          0.594              1.984              5.792
 Vibration     2          0.595              1.980              5.107
 Vibration     3          0.596              1.974              4.533
 Vibration     4          0.598              1.968              4.135
 Vibration     5          0.600              1.963              3.895
 Vibration     6          0.607              1.939              3.229
 Vibration     7          0.611              1.926              2.981
 Vibration     8          0.620              1.897              2.610
 Vibration     9          0.634              1.851              2.209
 Vibration    10          0.639              1.836              2.109
 Vibration    11          0.651              1.797              1.889
 Vibration    12          0.655              1.787              1.840
 Vibration    13          0.662              1.765              1.742
 Vibration    14          0.671              1.737              1.630
 Vibration    15          0.687              1.690              1.468
 Vibration    16          0.695              1.666              1.393
 Vibration    17          0.702              1.646              1.340
 Vibration    18          0.706              1.634              1.308
 Vibration    19          0.748              1.517              1.047
 Vibration    20          0.759              1.487              0.992
 Vibration    21          0.774              1.448              0.925
 Vibration    22          0.781              1.432              0.901
 Vibration    23          0.799              1.386              0.830
 Vibration    24          0.810              1.359              0.793
 Vibration    25          0.832              1.305              0.722
 Vibration    26          0.847              1.269              0.680
 Vibration    27          0.869              1.219              0.625
 Vibration    28          0.899              1.154              0.557
 Vibration    29          0.921              1.107              0.514
 Vibration    30          0.941              1.065              0.477
 Vibration    31          0.976              0.997              0.422

 Optimization completed.
    -- Stationary point found.
 Normal termination of Gaussian 16 at Fri May 27 15:04:41 2022.
