 Gaussian 16, Revision C.01,
 Gaussian 16:  ES64L-G16RevC.01  3-Jul-2019

 -----------------------------------------------------
 #m062X/gen 6D OPT Freq=noraman SCRF=(SMD,Solvent=h2o)
 -----------------------------------------------------

 ----------------
 HA.21.smd.a1.smd
 ----------------
 Symbolic Z-matrix:
 Charge =  0 Multiplicity = 1

 SCF Done:  E(RM062X) =  -1895.93586104     A.U. after   15 cycles
 Optimization completed.
    -- Stationary point found.
 Normal termination of Gaussian 16 at Fri May 27 00:28:13 2022.

 ------------------------------------------------------------------
 #N Geom=AllCheck Guess=TCheck SCRF=Check GenChk RM062X/ChkBas Freq
 ------------------------------------------------------------------

 Structure from the checkpoint file:  "/jobfs/41417054.gadi-pbs/Gau-3275180.chk"
 ----------------
 HA.21.smd.a1.smd
 ----------------
 Charge =  0 Multiplicity = 1

                         Standard orientation:
 ---------------------------------------------------------------------
 Center     Atomic      Atomic             Coordinates (Angstroms)
 Number     Number       Type             X           Y           Z
 ---------------------------------------------------------------------
      1          6           0        1.447348    0.007433   -0.100063
      2         16           0        3.200239   -0.258017   -0.110482
      3          8           0        3.434374   -1.492430   -0.846916
      4          8           0        3.796993    1.000818   -0.542044
      5          7           0        3.697892   -0.520006    1.427436
      6          1           0        3.294600   -1.367929    1.832167
      7          1           0        3.552976    0.290619    2.033085
      8         16           0        0.808722    1.605294   -0.069899
      9          6           0       -0.788862    0.975540   -0.009309
     10          6           0       -0.787895   -0.400382   -0.023452
     11          6           0        0.501391   -0.981791   -0.073231
     12          6           0       -1.966211    1.875168    0.038141
     13         16           0       -2.305681   -1.317549    0.034000
     14          8           0       -2.626952   -1.606484    1.438632
     15          8           0       -2.193482   -2.453004   -0.889556
     16          1           0        0.713377   -2.045775   -0.099793
     17          6           0       -3.324632    1.222241    0.143465
     18          6           0       -3.447773   -0.103111   -0.605428
     19          8           0       -1.815145    3.083793    0.033765
     20          1           0       -4.068526    1.920886   -0.246425
     21          1           0       -3.531224    1.080611    1.212656
     22          1           0       -3.222203   -0.004973   -1.671338
     23          1           0       -4.443208   -0.541167   -0.482107
 ---------------------------------------------------------------------

 SCF Done:  E(RM062X) =  -1895.93586104     A.U. after    1 cycles

 The electronic state is 1-A.
 Alpha  occ. eigenvalues --  -90.20150 -90.17270 -90.01040 -19.67783 -19.67473
 Alpha  occ. eigenvalues --  -19.67459 -19.66925 -19.66790 -14.81273 -10.68762
 Alpha  occ. eigenvalues --  -10.64441 -10.63724 -10.62904 -10.61192 -10.60419
 Alpha  occ. eigenvalues --  -10.58342  -8.51009  -8.48680  -8.35341  -6.43204
 Alpha  occ. eigenvalues --   -6.43190  -6.43133  -6.40844  -6.40802  -6.40717
 Alpha  occ. eigenvalues --   -6.27324  -6.27094  -6.26890  -1.27734  -1.25674
 Alpha  occ. eigenvalues --   -1.20708  -1.16252  -1.14730  -1.04973  -1.04133
 Alpha  occ. eigenvalues --   -0.95581  -0.89455  -0.89145  -0.83428  -0.79594
 Alpha  occ. eigenvalues --   -0.74243  -0.71785  -0.68516  -0.64934  -0.62921
 Alpha  occ. eigenvalues --   -0.62196  -0.61130  -0.59690  -0.58502  -0.57704
 Alpha  occ. eigenvalues --   -0.56198  -0.55907  -0.54701  -0.53486  -0.51956
 Alpha  occ. eigenvalues --   -0.49655  -0.49301  -0.48651  -0.46643  -0.45235
 Alpha  occ. eigenvalues --   -0.44990  -0.43695  -0.43362  -0.42959  -0.41661
 Alpha  occ. eigenvalues --   -0.41495  -0.40654  -0.40196  -0.38039  -0.36501
 Alpha  occ. eigenvalues --   -0.35112  -0.33902
 Alpha virt. eigenvalues --   -0.07898  -0.00039   0.00517   0.01462   0.02292
 Alpha virt. eigenvalues --    0.02865   0.03077   0.03512   0.03827   0.04644
 Alpha virt. eigenvalues --    0.04852   0.05052   0.05895   0.06209   0.06926

 Mulliken charges:
               1
     1  C   -1.241320
     2  S    1.809404
     3  O   -0.578526
     4  O   -0.612397
     5  N   -0.959492
     6  H    0.509038
     7  H    0.511283
     8  S    0.324615
     9  C   -0.087928
    10  C   -1.085777
    11  C    0.788473
    12  C    0.307820
    13  S    1.467583
    14  O   -0.531463
    15  O   -0.568058
    16  H    0.334767
    17  C   -0.576881
    18  C   -0.663715
    19  O   -0.492158
    20  H    0.311708
    21  H    0.335820
    22  H    0.348832
    23  H    0.348373
 Sum of Mulliken charges =  -0.00000

 Dipole moment (field-independent basis, Debye):
    X=             -4.9928    Y=              2.2746    Z=              3.6872  Tot=              6.6103
 Quadrupole moment (field-independent basis, Debye-Ang):
   XX=           -118.8119   YY=           -140.0258   ZZ=           -111.6444
   XY=            -11.9969   XZ=             25.7921   YZ=             -2.5348

  Exact polarizability:     257.230      -7.179     245.743      -0.329       1.369     155.027
 Approx polarizability:     209.881      -0.361     232.385      -2.576       2.245     148.177

                      1                      2                      3
                      A                      A                      A
 Frequencies --     40.1830                54.0906                73.2017
 Red. masses --      6.9061                 5.7173                 9.6474
 Frc consts  --      0.0066                 0.0099                 0.0305
 IR Inten    --     13.6125                11.7980                25.8105

                      4                      5                      6
                      A                      A                      A
 Frequencies --     96.9501               113.9443               154.5974
 Red. masses --     11.4011                11.0926                 6.1253
 Frc consts  --      0.0631                 0.0849                 0.0863
 IR Inten    --      4.3101                 0.0423                 4.6596

                      7                      8                      9
                      A                      A                      A
 Frequencies --    185.5036               210.0882               224.8187
 Red. masses --      3.6171                10.0477                 7.2280
 Frc consts  --      0.0733                 0.2613                 0.2152
 IR Inten    --     13.2321                 9.0749                 1.9431

                     10                     11                     12
                      A                      A                      A
 Frequencies --    270.9767               296.3475               303.7823
 Red. masses --      4.4375                 4.5021                 6.9721
 Frc consts  --      0.1920                 0.2330                 0.3791
 IR Inten    --      4.0591                17.0051                 2.9187

                     13                     14                     15
                      A                      A                      A
 Frequencies --    313.9150               344.6885               385.7119
 Red. masses --      2.3189                 6.6272                 5.3429
 Frc consts  --      0.1346                 0.4639                 0.4683
 IR Inten    --     21.3102                30.9891                12.8402

                     16                     17                     18
                      A                      A                      A
 Frequencies --    396.0663               437.6824               451.7915
 Red. masses --      3.1732                 5.0751                 3.5549
 Frc consts  --      0.2933                 0.5728                 0.4275
 IR Inten    --      8.4691               126.8810                33.8445

                     19                     20                     21
                      A                      A                      A
 Frequencies --    452.8404               469.8195               526.3902
 Red. masses --      5.1332                 6.8461                 5.1300
 Frc consts  --      0.6202                 0.8903                 0.8375
 IR Inten    --      7.9618                59.5361                67.8380

                     22                     23                     24
                      A                      A                      A
 Frequencies --    548.0629               551.2610               568.8799
 Red. masses --      5.2263                 5.8248                 6.6844
 Frc consts  --      0.9249                 1.0429                 1.2745
 IR Inten    --     57.3618                40.3954                24.0743

                     25                     26                     27
                      A                      A                      A
 Frequencies --    610.2104               645.0802               694.4338
 Red. masses --      5.1593                 4.8342                 3.7553
 Frc consts  --      1.1319                 1.1852                 1.0670
 IR Inten    --    105.8056                45.6903               101.4343

                     28                     29                     30
                      A                      A                      A
 Frequencies --    707.5959               734.6517               751.0904
 Red. masses --      2.9469                 4.6006                 4.2573
 Frc consts  --      0.8693                 1.4629                 1.4150
 IR Inten    --    505.3191               312.1579                99.7403

                     31                     32                     33
                      A                      A                      A
 Frequencies --    842.7847               891.8091               911.2996
 Red. masses --      2.5548                 1.4906                 2.8361
 Frc consts  --      1.0691                 0.6985                 1.3877
 IR Inten    --     53.4893                40.9378                32.5075

                     34                     35                     36
                      A                      A                      A
 Frequencies --    926.3099               975.0726              1016.8287
 Red. masses --      5.3971                 2.0503                 2.9722
 Frc consts  --      2.7285                 1.1485                 1.8106
 IR Inten    --    189.0720                12.0915                 4.3967

                     37                     38                     39
                      A                      A                      A
 Frequencies --   1063.5947              1074.3595              1119.5497
 Red. masses --      5.1010                 2.6518                 8.8683
 Frc consts  --      3.3999                 1.8034                 6.5490
 IR Inten    --    143.0965                 5.3608               465.5173

                     40                     41                     42
                      A                      A                      A
 Frequencies --   1133.9917              1148.1626              1174.7490
 Red. masses --      1.2613                 9.9877                 1.2101
 Frc consts  --      0.9556                 7.7575                 0.9839
 IR Inten    --      3.1097               514.9954                35.1938

                     43                     44                     45
                      A                      A                      A
 Frequencies --   1196.2498              1227.2819              1270.1683
 Red. masses --      1.7243                 1.4942                12.5033
 Frc consts  --      1.4538                 1.3260                11.8850
 IR Inten    --     24.3146               108.5176               512.4086

                     46                     47                     48
                      A                      A                      A
 Frequencies --   1310.2808              1330.7975              1343.9568
 Red. masses --      3.0183                11.5760                 1.4143
 Frc consts  --      3.0531                12.0790                 1.5051
 IR Inten    --    182.6964               548.1882                17.4724

                     49                     50                     51
                      A                      A                      A
 Frequencies --   1375.1357              1396.6795              1441.1949
 Red. masses --      1.9478                 5.2700                 1.0746
 Frc consts  --      2.1701                 6.0570                 1.3151
 IR Inten    --     69.2108                 4.7220                20.8940

                     52                     53                     54
                      A                      A                      A
 Frequencies --   1448.4360              1500.5067              1593.8709
 Red. masses --      1.0874                 8.0323                 1.0998
 Frc consts  --      1.3441                10.6553                 1.6462
 IR Inten    --     21.8117                68.4325               114.5199

                     55                     56                     57
                      A                      A                      A
 Frequencies --   1599.0020              1784.7105              3095.1986
 Red. masses --      8.0665                12.4635                 1.0671
 Frc consts  --     12.1515                23.3897                 6.0234
 IR Inten    --     59.7356               701.3985                 8.0462

                     58                     59                     60
                      A                      A                      A
 Frequencies --   3123.0162              3173.4459              3188.8049
 Red. masses --      1.0595                 1.0978                 1.1094
 Frc consts  --      6.0885                 6.5136                 6.6468
 IR Inten    --      6.8139                 1.1972                 9.2557

                     61                     62                     63
                      A                      A                      A
 Frequencies --   3265.3134              3486.3450              3589.0373
 Red. masses --      1.0976                 1.0485                 1.0999
 Frc consts  --      6.8953                 7.5083                 8.3478
 IR Inten    --     30.2804               171.8726               182.2400

 - Thermochemistry -
 -------------------
 Temperature   298.150 Kelvin.  Pressure   1.00000 Atm.
 Atom     1 has atomic number  6 and mass  12.00000

 Molecular mass:   280.94864 amu.
 Principal axes and moments of inertia in atomic units:
                           1         2         3
     Eigenvalues --  2461.707466876.561128567.79557
           X            0.99989  -0.01122   0.01005
           Y            0.01124   0.99994  -0.00157
           Z           -0.01004   0.00168   0.99995
 This molecule is an asymmetric top.
 Rotational symmetry number  1.
 Warning -- assumption of classical behavior for rotation
           may cause significant error
 Rotational temperatures (Kelvin)      0.03518     0.01260     0.01011
 Rotational constants (GHZ):           0.73313     0.26245     0.21064
 Zero-point vibrational energy     398551.5 (Joules/Mol)
                                   95.25608 (Kcal/Mol)
 Warning -- explicit consideration of  25 degrees of freedom as
           vibrations may cause significant error
 Vibrational temperatures:     57.81    77.82   105.32   139.49   163.94
          (Kelvin)            222.43   266.90   302.27   323.46   389.88
                              426.38   437.08   451.65   495.93   554.95
                              569.85   629.73   650.03   651.54   675.97
                              757.36   788.54   793.14   818.49   877.96
                              928.13   999.14  1018.07  1057.00  1080.65
                             1212.58  1283.11  1311.16  1332.75  1402.91
                             1462.99  1530.28  1545.76  1610.78  1631.56
                             1651.95  1690.20  1721.14  1765.78  1827.49
                             1885.20  1914.72  1933.65  1978.51  2009.51
                             2073.56  2083.98  2158.89  2293.22  2300.61
                             2567.80  4453.30  4493.32  4565.88  4587.98
                             4698.06  5016.07  5163.82

 Zero-point correction=                           0.151800 (Hartree/Particle)
 Thermal correction to Energy=                    0.166615
 Thermal correction to Enthalpy=                  0.167559
 Thermal correction to Gibbs Free Energy=         0.108970
 Sum of electronic and zero-point Energies=          -1895.784061
 Sum of electronic and thermal Energies=             -1895.769246
 Sum of electronic and thermal Enthalpies=           -1895.768302
 Sum of electronic and thermal Free Energies=        -1895.826891

                     E (Thermal)             CV                S
                      KCal/Mol        Cal/Mol-Kelvin    Cal/Mol-Kelvin
 Total                  104.552             55.514            123.310
 Electronic               0.000              0.000              0.000
 Translational            0.889              2.981             42.797
 Rotational               0.889              2.981             33.339
 Vibrational            102.775             49.552             47.174
 Vibration     1          0.594              1.981              5.250
 Vibration     2          0.596              1.976              4.662
 Vibration     3          0.599              1.967              4.065
 Vibration     4          0.603              1.951              3.515
 Vibration     5          0.607              1.938              3.201
 Vibration     6          0.620              1.898              2.615
 Vibration     7          0.632              1.860              2.272
 Vibration     8          0.642              1.825              2.043
 Vibration     9          0.649              1.803              1.920
 Vibration    10          0.675              1.727              1.590
 Vibration    11          0.690              1.681              1.437
 Vibration    12          0.695              1.667              1.396
 Vibration    13          0.702              1.647              1.342
 Vibration    14          0.723              1.586              1.190
 Vibration    15          0.754              1.501              1.017
 Vibration    16          0.763              1.479              0.977
 Vibration    17          0.798              1.388              0.834
 Vibration    18          0.810              1.357              0.790
 Vibration    19          0.811              1.355              0.787
 Vibration    20          0.827              1.317              0.738
 Vibration    21          0.881              1.192              0.595
 Vibration    22          0.903              1.144              0.548
 Vibration    23          0.907              1.137              0.542
 Vibration    24          0.925              1.099              0.506
 Vibration    25          0.969              1.010              0.432

 Optimization completed.
    -- Stationary point found.
 Normal termination of Gaussian 16 at Fri May 27 00:36:29 2022.
