 Gaussian 16, Revision C.01,
 Gaussian 16:  ES64L-G16RevC.01  3-Jul-2019

 -----------------------------------------------------
 #m062X/gen 6D OPT Freq=noraman SCRF=(SMD,Solvent=h2o)
 -----------------------------------------------------

 -----------------
 HA.25.smd.a3d3.smd
 -----------------
 Symbolic Z-matrix:
 Charge =  0 Multiplicity = 1

 SCF Done:  E(RM062X) =  -1396.72408499     A.U. after   15 cycles
 SCF Done:  E(RM062X) =  -1396.73697861     A.U. after   14 cycles
 SCF Done:  E(RM062X) =  -1396.74788883     A.U. after   15 cycles
 SCF Done:  E(RM062X) =  -1396.75334812     A.U. after   14 cycles
 SCF Done:  E(RM062X) =  -1396.75574151     A.U. after   13 cycles
 SCF Done:  E(RM062X) =  -1396.75608282     A.U. after   12 cycles
 SCF Done:  E(RM062X) =  -1396.75635197     A.U. after   12 cycles
 SCF Done:  E(RM062X) =  -1396.75645042     A.U. after   12 cycles
 SCF Done:  E(RM062X) =  -1396.75646838     A.U. after   11 cycles
 SCF Done:  E(RM062X) =  -1396.75649860     A.U. after   11 cycles
 SCF Done:  E(RM062X) =  -1396.75984557     A.U. after   11 cycles
 SCF Done:  E(RM062X) =  -1396.75986789     A.U. after   11 cycles
 SCF Done:  E(RM062X) =  -1396.75969562     A.U. after   13 cycles
 SCF Done:  E(RM062X) =  -1396.75986671     A.U. after   13 cycles
 SCF Done:  E(RM062X) =  -1396.75987142     A.U. after   10 cycles
 SCF Done:  E(RM062X) =  -1396.75987660     A.U. after    9 cycles
 SCF Done:  E(RM062X) =  -1396.75988900     A.U. after   10 cycles
 SCF Done:  E(RM062X) =  -1396.75989269     A.U. after   10 cycles
 SCF Done:  E(RM062X) =  -1396.75989389     A.U. after   10 cycles
 Optimization completed.
    -- Stationary point found.
 Normal termination of Gaussian 16 at Fri May 20 22:19:20 2022.

 ------------------------------------------------------------------
 #N Geom=AllCheck Guess=TCheck SCRF=Check GenChk RM062X/ChkBas Freq
 ------------------------------------------------------------------

 Structure from the checkpoint file:  "/jobfs/40775451.gadi-pbs/Gau-545362.chk"
 -----------------
 HA.25.smd.a3d3.smd
 -----------------
 Charge =  0 Multiplicity = 1

                         Standard orientation:
 ---------------------------------------------------------------------
 Center     Atomic      Atomic             Coordinates (Angstroms)
 Number     Number       Type             X           Y           Z
 ---------------------------------------------------------------------
      1          6           0        0.983738    0.355208    0.090918
      2          6           0       -1.317196    0.748862   -0.001663
      3          7           0       -2.684307    0.774677   -0.043903
      4         16           0       -0.380043   -0.710291    0.063280
      5         16           0        2.663682   -0.236894    0.108562
      6          8           0        3.421746    0.626744    1.000322
      7          8           0        2.554958   -1.668715    0.359969
      8          7           0        3.288950   -0.051232   -1.390231
      9          1           0        3.377729    0.929417   -1.665131
     10          6           0       -3.480471   -0.349801   -0.042343
     11          8           0       -2.967909   -1.464028   -0.016463
     12          6           0       -4.955586   -0.100941   -0.036570
     13          7           0        0.715079    1.617548    0.051078
     14          7           0       -0.618327    1.859680    0.000045
     15          1           0       -3.116923    1.696618   -0.069264
     16          1           0        2.796684   -0.600837   -2.097873
     17          1           0       -5.286069   -0.035599    1.005944
     18          1           0       -5.459533   -0.943076   -0.511999
     19          1           0       -5.213138    0.831739   -0.542746
 ---------------------------------------------------------------------

 SCF Done:  E(RM062X) =  -1396.75989389     A.U. after    1 cycles

 The electronic state is 1-A.
 Alpha  occ. eigenvalues --  -90.20181 -90.00780 -19.67600 -19.67572 -19.65806
 Alpha  occ. eigenvalues --  -14.83858 -14.83716 -14.82096 -14.81392 -10.69520
 Alpha  occ. eigenvalues --  -10.69151 -10.65716 -10.55323  -8.51065  -8.35119
 Alpha  occ. eigenvalues --   -6.43254  -6.43245  -6.43189  -6.27082  -6.26876
 Alpha  occ. eigenvalues --   -6.26613  -1.27906  -1.20877  -1.18626  -1.16361
 Alpha  occ. eigenvalues --   -1.08710  -1.04537  -0.95914  -0.93715  -0.85419
 Alpha  occ. eigenvalues --   -0.80522  -0.74453  -0.70909  -0.68291  -0.66332
 Alpha  occ. eigenvalues --   -0.62847  -0.61156  -0.58970  -0.57241  -0.56834
 Alpha  occ. eigenvalues --   -0.55268  -0.53487  -0.53104  -0.51481  -0.47281
 Alpha  occ. eigenvalues --   -0.46422  -0.45558  -0.44085  -0.43567  -0.42829
 Alpha  occ. eigenvalues --   -0.41516  -0.40636  -0.39208  -0.37811  -0.37750
 Alpha  occ. eigenvalues --   -0.36256  -0.32365
 Alpha virt. eigenvalues --   -0.03963   0.00530   0.00992   0.01947   0.03187
 Alpha virt. eigenvalues --    0.03586   0.03851   0.04357   0.05399   0.05749
 Alpha virt. eigenvalues --    0.05895   0.06502   0.06596   0.06947   0.07952

 Mulliken charges:
               1
     1  C   -0.638937
     2  C   -0.410368
     3  N   -0.520688
     4  S    0.926834
     5  S    1.572730
     6  O   -0.588355
     7  O   -0.650830
     8  N   -0.977863
     9  H    0.508576
    10  C    0.757506
    11  O   -0.586398
    12  C   -1.047841
    13  N   -0.074319
    14  N   -0.151718
    15  H    0.541253
    16  H    0.507692
    17  H    0.293308
    18  H    0.271788
    19  H    0.267628
 Sum of Mulliken charges =  -0.00000

 Dipole moment (field-independent basis, Debye):
    X=             -9.2234    Y=              2.8785    Z=             -5.6248  Tot=             11.1801
 Quadrupole moment (field-independent basis, Debye-Ang):
   XX=            -73.8864   YY=           -104.7230   ZZ=            -83.1431
   XY=             -9.2039   XZ=            -16.4809   YZ=             -1.3299

  Exact polarizability:     217.727       5.344     171.155      -1.062       0.787     110.639
 Approx polarizability:     174.824       4.781     175.594       0.752       0.846     105.309

                      1                      2                      3
                      A                      A                      A
 Frequencies --     46.7217                63.4508                90.0359
 Red. masses --      7.2669                 4.9003                 2.3743
 Frc consts  --      0.0093                 0.0116                 0.0113
 IR Inten    --     10.2567                 4.2858                 5.8545

                      4                      5                      6
                      A                      A                      A
 Frequencies --     96.4358                98.1051               128.3521
 Red. masses --      1.7261                 5.4241                 5.5264
 Frc consts  --      0.0095                 0.0308                 0.0536
 IR Inten    --      1.0791                27.2689                11.2067

                      7                      8                      9
                      A                      A                      A
 Frequencies --    175.4334               241.9791               257.9474
 Red. masses --      8.1287                 5.2814                 5.0602
 Frc consts  --      0.1474                 0.1822                 0.1984
 IR Inten    --     53.8447                17.8977                 9.1406

                     10                     11                     12
                      A                      A                      A
 Frequencies --    283.6591               343.1746               376.2337
 Red. masses --      2.0056                 4.1421                 5.3954
 Frc consts  --      0.0951                 0.2874                 0.4500
 IR Inten    --     18.1956                 3.7830                 8.3399

                     13                     14                     15
                      A                      A                      A
 Frequencies --    384.8390               417.1758               457.1045
 Red. masses --      5.4356                 4.8952                 4.0521
 Frc consts  --      0.4743                 0.5019                 0.4988
 IR Inten    --     22.0563                 7.4860                22.2487

                     16                     17                     18
                      A                      A                      A
 Frequencies --    491.9605               552.5067               569.5562
 Red. masses --      8.7354                 1.6438                 4.5355
 Frc consts  --      1.2456                 0.2957                 0.8669
 IR Inten    --     36.5461               188.3056                52.3420

                     19                     20                     21
                      A                      A                      A
 Frequencies --    603.9513               613.7041               626.6358
 Red. masses --      5.7146                 2.6099                 4.2635
 Frc consts  --      1.2281                 0.5792                 0.9864
 IR Inten    --     13.2249                53.1409                67.4297

                     22                     23                     24
                      A                      A                      A
 Frequencies --    657.5032               684.2483               701.7624
 Red. masses --      9.4691                 2.9692                 4.2307
 Frc consts  --      2.4119                 0.8191                 1.2276
 IR Inten    --     42.0035               570.5275               312.6208

                     25                     26                     27
                      A                      A                      A
 Frequencies --    729.5244               827.5720               909.3235
 Red. masses --      6.8600                 9.8119                 3.2832
 Frc consts  --      2.1511                 3.9593                 1.5995
 IR Inten    --     59.8741                 1.0869                57.2297

                     28                     29                     30
                      A                      A                      A
 Frequencies --   1004.3749              1038.7255              1070.4141
 Red. masses --      4.5958                 1.6525                 1.7317
 Frc consts  --      2.7315                 1.0505                 1.1691
 IR Inten    --      3.5753                58.2743                19.6122

                     31                     32                     33
                      A                      A                      A
 Frequencies --   1113.5435              1130.3594              1163.1774
 Red. masses --      4.0355                 1.6027                11.7233
 Frc consts  --      2.9482                 1.2065                 9.3453
 IR Inten    --     70.5278                48.0724               423.6187

                     34                     35                     36
                      A                      A                      A
 Frequencies --   1203.5639              1265.8686              1335.5125
 Red. masses --     11.0825                 2.1793                12.1867
 Frc consts  --      9.4586                 2.0576                12.8065
 IR Inten    --     14.0128               236.1004               567.5687

                     37                     38                     39
                      A                      A                      A
 Frequencies --   1351.1650              1415.5301              1458.0911
 Red. masses --      6.7699                 1.2367                 1.2190
 Frc consts  --      7.2820                 1.4600                 1.5270
 IR Inten    --    247.5520                81.8182                88.0641

                     40                     41                     42
                      A                      A                      A
 Frequencies --   1482.3345              1495.1352              1545.9141
 Red. masses --      1.5563                 1.3765                 9.5469
 Frc consts  --      2.0149                 1.8129                13.4425
 IR Inten    --     12.6131                28.4639               190.5541

                     43                     44                     45
                      A                      A                      A
 Frequencies --   1558.5418              1586.3787              1758.8319
 Red. masses --      3.9810                 1.1047                 8.6744
 Frc consts  --      5.6974                 1.6379                15.8102
 IR Inten    --   1090.5605               112.6593               480.8950

                     46                     47                     48
                      A                      A                      A
 Frequencies --   3101.1006              3180.5199              3215.5030
 Red. masses --      1.0388                 1.0987                 1.1060
 Frc consts  --      5.8862                 6.5484                 6.7376
 IR Inten    --      0.8488                 2.7617                 1.5809

                     49                     50                     51
                      A                      A                      A
 Frequencies --   3483.0616              3581.3238              3585.4644
 Red. masses --      1.0480                 1.0795                 1.1003
 Frc consts  --      7.4911                 8.1578                 8.3341
 IR Inten    --    176.6696               283.6231               191.5782

 - Thermochemistry -
 -------------------
 Temperature   298.150 Kelvin.  Pressure   1.00000 Atm.
 Atom     1 has atomic number  6 and mass  12.00000

 Molecular mass:   221.98813 amu.
 Principal axes and moments of inertia in atomic units:
                           1         2         3
     Eigenvalues --   952.061755606.788746169.44234
           X            0.99997  -0.00225  -0.00726
           Y            0.00223   0.99999  -0.00265
           Z            0.00727   0.00264   0.99997
 This molecule is an asymmetric top.
 Rotational symmetry number  1.
 Warning -- assumption of classical behavior for rotation
           may cause significant error
 Rotational temperatures (Kelvin)      0.09098     0.01545     0.01404
 Rotational constants (GHZ):           1.89561     0.32189     0.29253
 Zero-point vibrational energy     332282.7 (Joules/Mol)
                                   79.41747 (Kcal/Mol)
 Warning -- explicit consideration of  20 degrees of freedom as
           vibrations may cause significant error
 Vibrational temperatures:     67.22    91.29   129.54   138.75   141.15
          (Kelvin)            184.67   252.41   348.15   371.13   408.12
                              493.75   541.32   553.70   600.22   657.67
                              707.82   794.93   819.46   868.95   882.98
                              901.59   946.00   984.48  1009.68  1049.62
                             1190.69  1308.31  1445.07  1494.49  1540.09
                             1602.14  1626.33  1673.55  1731.66  1821.30
                             1921.50  1944.03  2036.63  2097.87  2132.75
                             2151.17  2224.23  2242.39  2282.45  2530.57
                             4461.79  4576.06  4626.39  5011.35  5152.73
                             5158.68

 Zero-point correction=                           0.126560 (Hartree/Particle)
 Thermal correction to Energy=                    0.139432
 Thermal correction to Enthalpy=                  0.140376
 Thermal correction to Gibbs Free Energy=         0.086023
 Sum of electronic and zero-point Energies=          -1396.633334
 Sum of electronic and thermal Energies=             -1396.620462
 Sum of electronic and thermal Enthalpies=           -1396.619518
 Sum of electronic and thermal Free Energies=        -1396.673871

                     E (Thermal)             CV                S
                      KCal/Mol        Cal/Mol-Kelvin    Cal/Mol-Kelvin
 Total                   87.495             46.102            114.396
 Electronic               0.000              0.000              0.000
 Translational            0.889              2.981             42.095
 Rotational               0.889              2.981             31.866
 Vibrational             85.717             40.140             40.435
 Vibration     1          0.595              1.979              4.952
 Vibration     2          0.597              1.972              4.347
 Vibration     3          0.602              1.956              3.659
 Vibration     4          0.603              1.952              3.525
 Vibration     5          0.604              1.951              3.492
 Vibration     6          0.611              1.925              2.971
 Vibration     7          0.627              1.873              2.376
 Vibration     8          0.658              1.776              1.788
 Vibration     9          0.667              1.749              1.676
 Vibration    10          0.682              1.704              1.512
 Vibration    11          0.722              1.589              1.197
 Vibration    12          0.747              1.521              1.054
 Vibration    13          0.754              1.503              1.020
 Vibration    14          0.780              1.433              0.902
 Vibration    15          0.815              1.345              0.775
 Vibration    16          0.848              1.268              0.679
 Vibration    17          0.908              1.134              0.539
 Vibration    18          0.926              1.097              0.505
 Vibration    19          0.962              1.023              0.443
 Vibration    20          0.973              1.003              0.427

                           ! Non-Optimized Parameters !
 Normal termination of Gaussian 16 at Fri May 20 22:23:01 2022.
