 Gaussian 16, Revision C.01,
 Gaussian 16:  ES64L-G16RevC.01  3-Jul-2019

 -----------------------------------------------------
 #m062X/gen 6D OPT Freq=noraman SCRF=(SMD,Solvent=h2o)
 -----------------------------------------------------

 ----------------
 HA.49.smd.a1.smd
 ----------------
 Symbolic Z-matrix:
 Charge =  0 Multiplicity = 1

 SCF Done:  E(RM062X) =  -1326.38053295     A.U. after   15 cycles
 Optimization completed.
    -- Stationary point found.
 Normal termination of Gaussian 16 at Thu Jun 23 14:41:13 2022.

 ------------------------------------------------------------------
 #N Geom=AllCheck Guess=TCheck SCRF=Check GenChk RM062X/ChkBas Freq
 ------------------------------------------------------------------

 Structure from the checkpoint file:  "/jobfs/45187864.gadi-pbs/Gau-1782163.chk"
 ----------------
 HA.49.smd.a1.smd
 ----------------
 Charge =  0 Multiplicity = 1

                         Standard orientation:
 ---------------------------------------------------------------------
 Center     Atomic      Atomic             Coordinates (Angstroms)
 Number     Number       Type             X           Y           Z
 ---------------------------------------------------------------------
      1          6           0       -0.661330   -0.022283   -0.083120
      2          6           0        1.639456    0.676637    0.004482
      3         16           0        0.120904    1.529712   -0.017022
      4         16           0       -2.447873   -0.128084   -0.103976
      5          8           0       -2.916468    1.252704   -0.140596
      6          8           0       -2.822173   -1.068072   -1.151353
      7          7           0       -2.932833   -0.774540    1.318425
      8          1           0       -2.677338   -0.198810    2.123643
      9          7           0        0.070572   -1.078165   -0.086927
     10          6           0        1.408854   -0.713918   -0.038071
     11          6           0        2.934907    1.201900    0.052690
     12          6           0        3.990877    0.302846    0.061496
     13          6           0        3.771401   -1.088504    0.021488
     14          6           0        2.489500   -1.607582   -0.029238
     15          1           0       -2.633714   -1.745217    1.436001
     16          1           0        3.108483    2.272647    0.083736
     17          1           0        5.007717    0.681017    0.100391
     18          1           0        4.623093   -1.761316    0.030219
     19          1           0        2.306228   -2.677074   -0.061263
 ---------------------------------------------------------------------

 SCF Done:  E(RM062X) =  -1326.38053295     A.U. after    1 cycles

 The electronic state is 1-A.
 Alpha  occ. eigenvalues --  -90.19771 -89.98874 -19.67414 -19.67413 -14.81297
 Alpha  occ. eigenvalues --  -14.80848 -10.66365 -10.61048 -10.60938 -10.57494
 Alpha  occ. eigenvalues --  -10.57005 -10.56825 -10.56521  -8.50704  -8.33285
 Alpha  occ. eigenvalues --   -6.42891  -6.42885  -6.42809  -6.25280  -6.25062
 Alpha  occ. eigenvalues --   -6.24795  -1.27621  -1.16099  -1.11446  -1.04346
 Alpha  occ. eigenvalues --   -0.97424  -0.92481  -0.86881  -0.84770  -0.78922
 Alpha  occ. eigenvalues --   -0.71377  -0.69807  -0.68454  -0.62732  -0.62654
 Alpha  occ. eigenvalues --   -0.60194  -0.58059  -0.57247  -0.55105  -0.52726
 Alpha  occ. eigenvalues --   -0.52073  -0.51695  -0.47702  -0.45184  -0.44438
 Alpha  occ. eigenvalues --   -0.44053  -0.43207  -0.42292  -0.41185  -0.40778
 Alpha  occ. eigenvalues --   -0.40106  -0.38379  -0.37325  -0.31187  -0.30181
 Alpha virt. eigenvalues --   -0.04343   0.00437   0.00831   0.01439   0.03058
 Alpha virt. eigenvalues --    0.03379   0.03813   0.04002   0.04240   0.04451
 Alpha virt. eigenvalues --    0.05801   0.06704   0.06911   0.07112   0.07560

 Mulliken charges:
               1
     1  C   -0.680449
     2  C    0.549210
     3  S    0.489748
     4  S    1.776035
     5  O   -0.629181
     6  O   -0.577330
     7  N   -0.979193
     8  H    0.507391
     9  N   -0.113601
    10  C   -0.287480
    11  C   -0.266143
    12  C   -0.162090
    13  C   -0.299567
    14  C   -0.904020
    15  H    0.508304
    16  H    0.278739
    17  H    0.259416
    18  H    0.258820
    19  H    0.271393
 Sum of Mulliken charges =   0.00000

 Dipole moment (field-independent basis, Debye):
    X=              7.4346    Y=             -0.2678    Z=              5.4426  Tot=              9.2177
 Quadrupole moment (field-independent basis, Debye-Ang):
   XX=            -89.8622   YY=            -85.6534   ZZ=            -88.1250
   XY=              4.7067   XZ=            -13.0119   YZ=             -4.7701

  Exact polarizability:     268.562      -6.305     203.428       0.294       2.791     117.761
 Approx polarizability:     220.477      -6.882     201.176       1.569       4.072     111.591

                      1                      2                      3
                      A                      A                      A
 Frequencies --     37.2374                76.4561               123.1694
 Red. masses --      6.8568                 6.3352                 8.4151
 Frc consts  --      0.0056                 0.0218                 0.0752
 IR Inten    --      8.5397                 6.9305                 7.7168

                      4                      5                      6
                      A                      A                      A
 Frequencies --    192.2014               202.3555               260.8040
 Red. masses --      5.2866                 5.5613                 8.6788
 Frc consts  --      0.1151                 0.1342                 0.3478
 IR Inten    --     13.4494                12.8679                 7.2385

                      7                      8                      9
                      A                      A                      A
 Frequencies --    280.8892               322.0468               358.0926
 Red. masses --      3.1552                 3.8574                 2.3647
 Frc consts  --      0.1467                 0.2357                 0.1787
 IR Inten    --     29.0150                14.6286                 2.6383

                     10                     11                     12
                      A                      A                      A
 Frequencies --    409.1682               436.5330               447.5131
 Red. masses --      3.9105                 3.2350                 3.8366
 Frc consts  --      0.3857                 0.3632                 0.4527
 IR Inten    --     14.3560                32.8945                16.8933

                     13                     14                     15
                      A                      A                      A
 Frequencies --    475.9928               515.0813               539.3710
 Red. masses --      8.9679                 8.4143                 5.4593
 Frc consts  --      1.1971                 1.3153                 0.9358
 IR Inten    --     35.1297                 1.6727                42.4166

                     16                     17                     18
                      A                      A                      A
 Frequencies --    554.7643               610.5549               623.6809
 Red. masses --      7.6068                 5.1041                 7.7300
 Frc consts  --      1.3793                 1.1210                 1.7716
 IR Inten    --     74.7787                22.3131                29.5283

                     19                     20                     21
                      A                      A                      A
 Frequencies --    693.5782               715.3300               729.3408
 Red. masses --      2.2795                 6.2208                 8.2392
 Frc consts  --      0.6461                 1.8755                 2.5822
 IR Inten    --    631.3073               207.1062                76.2960

                     22                     23                     24
                      A                      A                      A
 Frequencies --    740.1552               782.8573               873.8866
 Red. masses --      3.3112                 1.4685                 6.5045
 Frc consts  --      1.0687                 0.5302                 2.9267
 IR Inten    --     17.2166               128.9257                36.1693

                     25                     26                     27
                      A                      A                      A
 Frequencies --    887.1919               904.5961               990.3060
 Red. masses --      1.3538                 3.3129                 1.3531
 Frc consts  --      0.6278                 1.5972                 0.7818
 IR Inten    --      0.6627                61.5832                 2.1873

                     28                     29                     30
                      A                      A                      A
 Frequencies --   1030.0593              1046.2737              1057.3513
 Red. masses --      1.3087                 4.4438                 2.5638
 Frc consts  --      0.8181                 2.8662                 1.6888
 IR Inten    --      0.0540                13.6523                25.6999

                     31                     32                     33
                      A                      A                      A
 Frequencies --   1113.3163              1128.4594              1152.0545
 Red. masses --      3.8038                 1.4136                 1.5161
 Frc consts  --      2.7778                 1.0606                 1.1856
 IR Inten    --     45.7555                24.4791                68.3878

                     34                     35                     36
                      A                      A                      A
 Frequencies --   1163.8511              1185.2942              1277.5283
 Red. masses --      4.7526                 1.2982                 2.3652
 Frc consts  --      3.7930                 1.0746                 2.2743
 IR Inten    --    397.5647                13.3034                11.6843

                     37                     38                     39
                      A                      A                      A
 Frequencies --   1319.6329              1330.5579              1365.1176
 Red. masses --      1.9963                11.8667                 8.8471
 Frc consts  --      2.0483                12.3779                 9.7139
 IR Inten    --      8.6670               538.1347                30.2113

                     40                     41                     42
                      A                      A                      A
 Frequencies --   1480.1553              1509.5339              1593.3353
 Red. masses --      2.4150                 2.8666                 1.1708
 Frc consts  --      3.1174                 3.8486                 1.7513
 IR Inten    --     24.3121                 9.1722                98.8855

                     43                     44                     45
                      A                      A                      A
 Frequencies --   1597.0990              1639.9452              1680.5480
 Red. masses --      6.3808                 7.0302                 6.8160
 Frc consts  --      9.5894                11.1397                11.3418
 IR Inten    --    130.4480                17.8525                 6.2505

                     46                     47                     48
                      A                      A                      A
 Frequencies --   3237.4314              3244.3275              3251.5298
 Red. masses --      1.0879                 1.0908                 1.0959
 Frc consts  --      6.7182                 6.7648                 6.8268
 IR Inten    --      1.6550                 1.5303                 2.6579

                     49                     50                     51
                      A                      A                      A
 Frequencies --   3256.8851              3487.3427              3589.5761
 Red. masses --      1.0988                 1.0480                 1.1001
 Frc consts  --      6.8672                 7.5095                 8.3514
 IR Inten    --      7.8764               174.3447               190.4494

 - Thermochemistry -
 -------------------
 Temperature   298.150 Kelvin.  Pressure   1.00000 Atm.
 Atom     1 has atomic number  6 and mass  12.00000

 Molecular mass:   213.98707 amu.
 Principal axes and moments of inertia in atomic units:
                           1         2         3
     Eigenvalues --  1038.333644662.496615322.28078
           X            0.99997   0.00100  -0.00705
           Y           -0.00110   0.99990  -0.01405
           Z            0.00703   0.01406   0.99988
 This molecule is an asymmetric top.
 Rotational symmetry number  1.
 Warning -- assumption of classical behavior for rotation
           may cause significant error
 Rotational temperatures (Kelvin)      0.08342     0.01858     0.01627
 Rotational constants (GHZ):           1.73811     0.38708     0.33909
 Zero-point vibrational energy     344048.2 (Joules/Mol)
                                   82.22948 (Kcal/Mol)
 Warning -- explicit consideration of  17 degrees of freedom as
           vibrations may cause significant error
 Vibrational temperatures:     53.58   110.00   177.21   276.53   291.14
          (Kelvin)            375.24   404.14   463.35   515.22   588.70
                              628.07   643.87   684.85   741.09   776.03
                              798.18   878.45   897.34   997.90  1029.20
                             1049.36  1064.92  1126.36  1257.33  1276.47
                             1301.51  1424.83  1482.03  1505.35  1521.29
                             1601.81  1623.60  1657.55  1674.52  1705.37
                             1838.08  1898.66  1914.38  1964.10  2129.61
                             2171.88  2292.45  2297.87  2359.52  2417.93
                             4657.94  4667.86  4678.23  4685.93  5017.51
                             5164.60

 Zero-point correction=                           0.131041 (Hartree/Particle)
 Thermal correction to Energy=                    0.141953
 Thermal correction to Enthalpy=                  0.142897
 Thermal correction to Gibbs Free Energy=         0.093309
 Sum of electronic and zero-point Energies=          -1326.249492
 Sum of electronic and thermal Energies=             -1326.238580
 Sum of electronic and thermal Enthalpies=           -1326.237636
 Sum of electronic and thermal Free Energies=        -1326.287224

                     E (Thermal)             CV                S
                      KCal/Mol        Cal/Mol-Kelvin    Cal/Mol-Kelvin
 Total                   89.077             42.062            104.366
 Electronic               0.000              0.000              0.000
 Translational            0.889              2.981             41.986
 Rotational               0.889              2.981             31.622
 Vibrational             87.299             36.101             30.758
 Vibration     1          0.594              1.982              5.401
 Vibration     2          0.599              1.965              3.980
 Vibration     3          0.610              1.930              3.050
 Vibration     4          0.634              1.851              2.206
 Vibration     5          0.639              1.837              2.112
 Vibration     6          0.669              1.744              1.656
 Vibration     7          0.681              1.709              1.528
 Vibration     8          0.707              1.631              1.300
 Vibration     9          0.733              1.559              1.130
 Vibration    10          0.774              1.450              0.930
 Vibration    11          0.797              1.391              0.838
 Vibration    12          0.807              1.366              0.803
 Vibration    13          0.833              1.303              0.721
 Vibration    14          0.870              1.217              0.621
 Vibration    15          0.894              1.163              0.567
 Vibration    16          0.910              1.129              0.534
 Vibration    17          0.970              1.009              0.432

                           ! Non-Optimized Parameters !
 Normal termination of Gaussian 16 at Thu Jun 23 14:44:58 2022.
