 Gaussian 16, Revision C.01,
 Gaussian 16:  ES64L-G16RevC.01  3-Jul-2019

 ----------------------------------------------------------------------
 #m062X/gen 6D OPT Freq=Noraman INT(grid=ultrafine) SCRF=(SMD,Solvent=h
 2o)
 ----------------------------------------------------------------------

 -----
 a2 b1
 -----
 Symbolic Z-matrix:
 Charge =  0 Multiplicity = 1

 SCF Done:  E(RM062X) =  -1295.55849969     A.U. after   15 cycles
 SCF Done:  E(RM062X) =  -1295.55914210     A.U. after   14 cycles
 SCF Done:  E(RM062X) =  -1295.55944267     A.U. after   14 cycles
 SCF Done:  E(RM062X) =  -1295.55989780     A.U. after   16 cycles
 SCF Done:  E(RM062X) =  -1295.56018709     A.U. after   12 cycles
 SCF Done:  E(RM062X) =  -1295.56053549     A.U. after   13 cycles
 SCF Done:  E(RM062X) =  -1295.56071114     A.U. after   16 cycles
 SCF Done:  E(RM062X) =  -1295.56069497     A.U. after   16 cycles
 SCF Done:  E(RM062X) =  -1295.56094520     A.U. after   13 cycles
 SCF Done:  E(RM062X) =  -1295.56097918     A.U. after   16 cycles
 SCF Done:  E(RM062X) =  -1295.56084575     A.U. after   16 cycles
 SCF Done:  E(RM062X) =  -1295.54203642     A.U. after   15 cycles
 SCF Done:  E(RM062X) =  -1295.56100439     A.U. after   14 cycles
 SCF Done:  E(RM062X) =  -1295.56103187     A.U. after    9 cycles
 SCF Done:  E(RM062X) =  -1295.56102783     A.U. after   12 cycles
 SCF Done:  E(RM062X) =  -1295.56102326     A.U. after   13 cycles
 SCF Done:  E(RM062X) =  -1295.56103391     A.U. after   11 cycles
 SCF Done:  E(RM062X) =  -1295.56103405     A.U. after   10 cycles
 SCF Done:  E(RM062X) =  -1295.56103406     A.U. after    9 cycles
 Optimization completed.
    -- Stationary point found.
 Normal termination of Gaussian 16 at Thu May 19 13:37:13 2022.

 ------------------------------------------------------------------
 #N Geom=AllCheck Guess=TCheck SCRF=Check GenChk RM062X/ChkBas Freq
 ------------------------------------------------------------------

 Structure from the checkpoint file:  "/jobfs/40639111.gadi-pbs/Gau-77591.chk"
 -----
 a2 b1
 -----
 Charge =  0 Multiplicity = 1

                         Standard orientation:
 ---------------------------------------------------------------------
 Center     Atomic      Atomic             Coordinates (Angstroms)
 Number     Number       Type             X           Y           Z
 ---------------------------------------------------------------------
      1          6           0        0.476053    0.000020    0.102411
      2          6           0       -0.198099    1.218719    0.075261
      3          1           0        0.345555    2.157968    0.099929
      4          6           0       -1.588491    1.218882    0.024924
      5          1           0       -2.137568    2.154257    0.009123
      6          6           0       -2.261939    0.000009    0.000528
      7         17           0       -4.004680   -0.000008   -0.059565
      8          6           0       -1.588475   -1.218862    0.024909
      9          1           0       -2.137546   -2.154242    0.009087
     10          6           0       -0.198095   -1.218684    0.075289
     11          1           0        0.345596   -2.157924    0.099935
     12         16           0        2.254046   -0.000018    0.114563
     13          8           0        2.700941    1.264350    0.697895
     14          8           0        2.700867   -1.264645    0.697403
     15          7           0        2.792198    0.000211   -1.446309
     16          1           0        2.496801    0.840450   -1.948146
     17          1           0        2.496415   -0.839702   -1.948478
 ---------------------------------------------------------------------

 SCF Done:  E(RM062X) =  -1295.56103406     A.U. after    1 cycles

 The electronic state is 1-A.
 Alpha  occ. eigenvalues -- -102.68387 -90.18361 -19.66329 -19.66327 -14.80356
 Alpha  occ. eigenvalues --  -10.63671 -10.60508 -10.58761 -10.58759 -10.58101
 Alpha  occ. eigenvalues --  -10.58101  -9.83065  -8.49353  -7.55463  -7.54813
 Alpha  occ. eigenvalues --   -7.54786  -6.41551  -6.41542  -6.41415  -1.26291
 Alpha  occ. eigenvalues --   -1.14851  -1.03294  -1.01617  -0.96197  -0.87586
 Alpha  occ. eigenvalues --   -0.86648  -0.76384  -0.72536  -0.69185  -0.64720
 Alpha  occ. eigenvalues --   -0.61665  -0.60224  -0.56605  -0.56537  -0.53907
 Alpha  occ. eigenvalues --   -0.53702  -0.51648  -0.48902  -0.46542  -0.44019
 Alpha  occ. eigenvalues --   -0.43977  -0.43208  -0.42297  -0.40362  -0.39812
 Alpha  occ. eigenvalues --   -0.38899  -0.38435  -0.33479  -0.31867
 Alpha virt. eigenvalues --   -0.02244  -0.00428   0.00962   0.02287   0.03771
 Alpha virt. eigenvalues --    0.03864   0.04178   0.05620   0.05649   0.06425
 Alpha virt. eigenvalues --    0.07172   0.08470   0.08861   0.09009   0.09379

 Mulliken charges:
               1
     1  C   -0.986297
     2  C    0.023625
     3  H    0.290961
     4  C   -0.393695
     5  H    0.283997
     6  C    0.206500
     7  Cl   0.211866
     8  C   -0.393608
     9  H    0.283996
    10  C    0.023282
    11  H    0.290965
    12  S    1.449995
    13  O   -0.647385
    14  O   -0.647437
    15  N   -1.003418
    16  H    0.503322
    17  H    0.503331
 Sum of Mulliken charges =  -0.00000

 Dipole moment (field-independent basis, Debye):
    X=             -4.5994    Y=              0.0016    Z=             -5.6070  Tot=              7.2521
 Quadrupole moment (field-independent basis, Debye-Ang):
   XX=           -102.9639   YY=            -72.5465   ZZ=            -75.6715
   XY=              0.0042   XZ=            -13.3283   YZ=             -0.0022

  Exact polarizability:     205.611       0.001     161.055      -0.012       0.001     100.356
 Approx polarizability:     170.884       0.001     150.095       1.347       0.001      92.399

                      1                      2                      3
                      A                      A                      A
 Frequencies --     14.8786                74.1910               154.0255
 Red. masses --      4.5391                 8.2999                 9.9949
 Frc consts  --      0.0006                 0.0269                 0.1397
 IR Inten    --      5.3640                11.4300                10.4886

                      4                      5                      6
                      A                      A                      A
 Frequencies --    189.9536               260.0793               275.3803
 Red. masses --      5.3900                15.8483                 2.1366
 Frc consts  --      0.1146                 0.6316                 0.0955
 IR Inten    --     13.8891                 0.3124                18.8515

                      7                      8                      9
                      A                      A                      A
 Frequencies --    315.5698               344.5114               407.7262
 Red. masses --      2.5234                 5.7196                 2.8386
 Frc consts  --      0.1481                 0.4000                 0.2780
 IR Inten    --     12.9378                 5.5667                12.6034

                     10                     11                     12
                      A                      A                      A
 Frequencies --    413.2613               459.5100               466.7232
 Red. masses --      2.9569                 4.1356                 6.3600
 Frc consts  --      0.2975                 0.5145                 0.8163
 IR Inten    --      0.2503                25.3393                15.3712

                     13                     14                     15
                      A                      A                      A
 Frequencies --    482.0997               534.3422               606.3033
 Red. masses --      8.3227                 3.8897                 8.2085
 Frc consts  --      1.1397                 0.6543                 1.7779
 IR Inten    --     79.2789               138.0585                39.2645

                     16                     17                     18
                      A                      A                      A
 Frequencies --    632.8931               726.0595               735.4277
 Red. masses --      7.1129                 3.5065                 3.0130
 Frc consts  --      1.6786                 1.0891                 0.9601
 IR Inten    --      0.2468                71.2706               345.0439

                     19                     20                     21
                      A                      A                      A
 Frequencies --    781.0763               849.5215               850.9393
 Red. masses --      4.6130                 1.4867                 1.2451
 Frc consts  --      1.6582                 0.6322                 0.5312
 IR Inten    --    503.1131               108.5219                 0.0511

                     22                     23                     24
                      A                      A                      A
 Frequencies --    898.3166               993.1656              1007.8819
 Red. masses --      2.3271                 1.3491                 1.3688
 Frc consts  --      1.1064                 0.7841                 0.8192
 IR Inten    --     15.4905                 0.1781                 0.0000

                     25                     26                     27
                      A                      A                      A
 Frequencies --   1022.3565              1110.8022              1122.8375
 Red. masses --      4.4788                 4.0630                 3.6068
 Frc consts  --      2.7581                 2.9537                 2.6792
 IR Inten    --     52.0423               117.3096               115.2104

                     28                     29                     30
                      A                      A                      A
 Frequencies --   1125.2744              1135.8637              1157.2687
 Red. masses --      1.2496                 1.2683                 4.4489
 Frc consts  --      0.9323                 0.9641                 3.5106
 IR Inten    --      3.3868                18.8197               362.7335

                     31                     32                     33
                      A                      A                      A
 Frequencies --   1200.0763              1304.9926              1321.5348
 Red. masses --      1.1973                10.0459                 1.3094
 Frc consts  --      1.0160                10.0799                 1.3473
 IR Inten    --     11.8584               556.9917                 5.2590

                     34                     35                     36
                      A                      A                      A
 Frequencies --   1336.0111              1442.3502              1524.5704
 Red. masses --      8.1063                 3.2403                 2.3050
 Frc consts  --      8.5250                 3.9718                 3.1565
 IR Inten    --      1.8035                42.0962                53.7357

                     37                     38                     39
                      A                      A                      A
 Frequencies --   1590.6311              1659.1549              1659.5064
 Red. masses --      1.0987                 6.3621                 7.7409
 Frc consts  --      1.6379                10.3186                12.5603
 IR Inten    --    108.4299                84.6000                10.0804

                     40                     41                     42
                      A                      A                      A
 Frequencies --   3248.9385              3249.9382              3260.5514
 Red. masses --      1.0908                 1.0904                 1.0961
 Frc consts  --      6.7841                 6.7855                 6.8659
 IR Inten    --      2.9069                 1.1862                 3.0427

                     43                     44                     45
                      A                      A                      A
 Frequencies --   3261.4618              3489.5781              3588.8974
 Red. masses --      1.0970                 1.0490                 1.0986
 Frc consts  --      6.8752                 7.5265                 8.3368
 IR Inten    --      0.9440               136.9143               152.5515

 - Thermochemistry -
 -------------------
 Temperature   298.150 Kelvin.  Pressure   1.00000 Atm.
 Atom     1 has atomic number  6 and mass  12.00000

 Molecular mass:   190.98078 amu.
 Principal axes and moments of inertia in atomic units:
                           1         2         3
     Eigenvalues --   699.273074522.949724842.24788
           X            0.99996   0.00000  -0.00855
           Y           -0.00000   1.00000  -0.00001
           Z            0.00855   0.00001   0.99996
 This molecule is an asymmetric top.
 Rotational symmetry number  1.
 Warning -- assumption of classical behavior for rotation
           may cause significant error
 Rotational temperatures (Kelvin)      0.12386     0.01915     0.01789
 Rotational constants (GHZ):           2.58088     0.39902     0.37271
 Zero-point vibrational energy     312742.3 (Joules/Mol)
                                   74.74721 (Kcal/Mol)
 Warning -- explicit consideration of  15 degrees of freedom as
           vibrations may cause significant error
 Vibrational temperatures:     21.41   106.74   221.61   273.30   374.20
          (Kelvin)            396.21   454.03   495.68   586.63   594.59
                              661.13   671.51   693.63   768.80   872.34
                              910.59  1044.64  1058.12  1123.79  1222.27
                             1224.31  1292.48  1428.94  1450.12  1470.94
                             1598.20  1615.51  1619.02  1634.25  1665.05
                             1726.64  1877.59  1901.39  1922.22  2075.22
                             2193.52  2288.56  2387.15  2387.66  4674.50
                             4675.94  4691.21  4692.52  5020.72  5163.62

 Zero-point correction=                           0.119117 (Hartree/Particle)
 Thermal correction to Energy=                    0.129148
 Thermal correction to Enthalpy=                  0.130092
 Thermal correction to Gibbs Free Energy=         0.081605
 Sum of electronic and zero-point Energies=          -1295.441917
 Sum of electronic and thermal Energies=             -1295.431886
 Sum of electronic and thermal Enthalpies=           -1295.430942
 Sum of electronic and thermal Free Energies=        -1295.479429

                     E (Thermal)             CV                S
                      KCal/Mol        Cal/Mol-Kelvin    Cal/Mol-Kelvin
 Total                   81.042             37.538            102.049
 Electronic               0.000              0.000              0.000
 Translational            0.889              2.981             41.647
 Rotational               0.889              2.981             31.105
 Vibrational             79.264             31.576             29.298
 Vibration     1          0.593              1.986              7.222
 Vibration     2          0.599              1.966              4.039
 Vibration     3          0.620              1.898              2.622
 Vibration     4          0.633              1.854              2.228
 Vibration     5          0.668              1.746              1.661
 Vibration     6          0.677              1.719              1.562
 Vibration     7          0.703              1.644              1.333
 Vibration     8          0.723              1.586              1.191
 Vibration     9          0.772              1.453              0.935
 Vibration    10          0.777              1.441              0.915
 Vibration    11          0.817              1.340              0.768
 Vibration    12          0.824              1.324              0.747
 Vibration    13          0.838              1.290              0.704
 Vibration    14          0.889              1.174              0.578
 Vibration    15          0.965              1.018              0.439

 Optimization completed.
    -- Stationary point found.
 Normal termination of Gaussian 16 at Thu May 19 13:40:08 2022.
