 Gaussian 16, Revision C.01,
 Gaussian 16:  ES64L-G16RevC.01  3-Jul-2019

 -----------------------------------------------------
 #m062X/gen 6D OPT Freq=noraman SCRF=(SMD,Solvent=h2o)
 -----------------------------------------------------

 ------------------
 HA.27.smd.a1d3.smd
 ------------------
 Symbolic Z-matrix:
 Charge =  0 Multiplicity = 1

 SCF Done:  E(RM062X) =  -1480.15411251     A.U. after   16 cycles
 SCF Done:  E(RM062X) =  -1480.15693898     A.U. after   14 cycles
 SCF Done:  E(RM062X) =  -1480.15734984     A.U. after   14 cycles
 SCF Done:  E(RM062X) =  -1480.15756247     A.U. after   13 cycles
 SCF Done:  E(RM062X) =  -1480.15876348     A.U. after   16 cycles
 SCF Done:  E(RM062X) =  -1480.15925263     A.U. after   14 cycles
 SCF Done:  E(RM062X) =  -1480.16125484     A.U. after   13 cycles
 SCF Done:  E(RM062X) =  -1480.16199929     A.U. after   13 cycles
 SCF Done:  E(RM062X) =  -1480.16224294     A.U. after   13 cycles
 SCF Done:  E(RM062X) =  -1480.16229275     A.U. after   11 cycles
 SCF Done:  E(RM062X) =  -1480.16231099     A.U. after   10 cycles
 SCF Done:  E(RM062X) =  -1480.16232642     A.U. after   13 cycles
 SCF Done:  E(RM062X) =  -1480.16231978     A.U. after   12 cycles
 SCF Done:  E(RM062X) =  -1480.16232211     A.U. after   12 cycles
 SCF Done:  E(RM062X) =  -1480.16233256     A.U. after   11 cycles
 SCF Done:  E(RM062X) =  -1480.16233440     A.U. after   11 cycles
 SCF Done:  E(RM062X) =  -1480.16233592     A.U. after   11 cycles
 SCF Done:  E(RM062X) =  -1480.16233659     A.U. after   11 cycles
 SCF Done:  E(RM062X) =  -1480.16233678     A.U. after   10 cycles
 Optimization completed.
    -- Stationary point found.
 Normal termination of Gaussian 16 at Wed May 25 13:02:13 2022.

 ------------------------------------------------------------------
 #N Geom=AllCheck Guess=TCheck SCRF=Check GenChk RM062X/ChkBas Freq
 ------------------------------------------------------------------

 Structure from the checkpoint file:  "/jobfs/41195498.gadi-pbs/Gau-715539.chk"
 ------------------
 HA.27.smd.a1d3.smd
 ------------------
 Charge =  0 Multiplicity = 1

                         Standard orientation:
 ---------------------------------------------------------------------
 Center     Atomic      Atomic             Coordinates (Angstroms)
 Number     Number       Type             X           Y           Z
 ---------------------------------------------------------------------
      1          6           0        1.791297    0.041697   -0.094476
      2         16           0        3.564446   -0.168459   -0.085813
      3          8           0        3.784174   -1.601211   -0.252542
      4          8           0        4.129531    0.786331   -1.029506
      5          7           0        4.121412    0.239893    1.398556
      6          1           0        3.746333   -0.356712    2.138998
      7          1           0        3.988907    1.231218    1.609167
      8          7           0        1.249220    1.207120   -0.078066
      9          6           0       -0.128691    1.077658   -0.048561
     10          6           0       -0.601212   -0.247960   -0.038714
     11         16           0        0.745159   -1.351005   -0.070233
     12          6           0       -1.049592    2.139950   -0.030262
     13          6           0       -2.394357    1.849993   -0.002716
     14          6           0       -2.853644    0.509519    0.004733
     15          6           0       -1.965362   -0.560565   -0.014282
     16          8           0       -4.203380    0.367255    0.032205
     17          6           0       -4.744216   -0.960537    0.036300
     18          6           0       -6.249712   -0.835439    0.065434
     19          1           0       -0.695500    3.165962   -0.037441
     20          1           0       -3.134992    2.643456    0.013244
     21          1           0       -2.299977   -1.591001   -0.009191
     22          1           0       -4.371741   -1.494085    0.918470
     23          1           0       -4.405301   -1.485744   -0.864198
     24          1           0       -6.577200   -0.305541    0.964739
     25          1           0       -6.697277   -1.833476    0.068949
     26          1           0       -6.611039   -0.296651   -0.815422
 ---------------------------------------------------------------------

 SCF Done:  E(RM062X) =  -1480.16233678     A.U. after    1 cycles

 The electronic state is 1-A.
 Alpha  occ. eigenvalues --  -90.19658 -89.98761 -19.68710 -19.67317 -19.67301
 Alpha  occ. eigenvalues --  -14.81193 -14.80778 -10.65955 -10.63413 -10.61310
 Alpha  occ. eigenvalues --  -10.60469 -10.59947 -10.57325 -10.57231 -10.56496
 Alpha  occ. eigenvalues --  -10.53415  -8.50589  -8.33165  -6.42778  -6.42770
 Alpha  occ. eigenvalues --   -6.42693  -6.25161  -6.24945  -6.24673  -1.27503
 Alpha  occ. eigenvalues --   -1.20245  -1.15995  -1.11279  -1.04240  -0.97452
 Alpha  occ. eigenvalues --   -0.92489  -0.88448  -0.85249  -0.84362  -0.78658
 Alpha  occ. eigenvalues --   -0.73476  -0.70146  -0.69421  -0.67836  -0.62944
 Alpha  occ. eigenvalues --   -0.62667  -0.61009  -0.60360  -0.58275  -0.56549
 Alpha  occ. eigenvalues --   -0.55524  -0.54434  -0.52598  -0.52236  -0.49421
 Alpha  occ. eigenvalues --   -0.48314  -0.47476  -0.46615  -0.45056  -0.44542
 Alpha  occ. eigenvalues --   -0.43421  -0.43090  -0.42458  -0.41612  -0.41175
 Alpha  occ. eigenvalues --   -0.40431  -0.40001  -0.38411  -0.37940  -0.37174
 Alpha  occ. eigenvalues --   -0.30631  -0.28418
 Alpha virt. eigenvalues --   -0.03857   0.00295   0.00790   0.01478   0.02993
 Alpha virt. eigenvalues --    0.03318   0.03906   0.04136   0.04214   0.04386
 Alpha virt. eigenvalues --    0.05281   0.05487   0.05765   0.06340   0.06982

 Mulliken charges:
               1
     1  C   -0.497569
     2  S    1.888474
     3  O   -0.621128
     4  O   -0.572825
     5  N   -0.973186
     6  H    0.507037
     7  H    0.508760
     8  N   -0.106231
     9  C   -0.347313
    10  C    0.551516
    11  S    0.490989
    12  C   -1.635178
    13  C   -0.226770
    14  C    0.087770
    15  C    0.336441
    16  O   -0.472320
    17  C    0.064708
    18  C   -0.998673
    19  H    0.277713
    20  H    0.267185
    21  H    0.284077
    22  H    0.237829
    23  H    0.238058
    24  H    0.235189
    25  H    0.240198
    26  H    0.235252
 Sum of Mulliken charges =  -0.00000

 Dipole moment (field-independent basis, Debye):
    X=             -8.2386    Y=             -0.8873    Z=              5.4951  Tot=              9.9428
 Quadrupole moment (field-independent basis, Debye-Ang):
   XX=           -120.8774   YY=           -104.4763   ZZ=           -104.9694
   XY=             14.1390   XZ=             20.2571   YZ=              2.4156

  Exact polarizability:     330.814     -12.400     239.408       0.631      -1.066     150.626
 Approx polarizability:     263.760      -9.336     229.496      -1.272      -1.683     138.301

                      1                      2                      3
                      A                      A                      A
 Frequencies --     35.3462                45.7245                77.0558
 Red. masses --      5.3684                 6.6231                 5.4159
 Frc consts  --      0.0040                 0.0082                 0.0189
 IR Inten    --      5.7024                 6.5159                 9.1906

                      4                      5                      6
                      A                      A                      A
 Frequencies --     92.3632               128.2664               151.1825
 Red. masses --      6.1742                 1.7284                 4.8214
 Frc consts  --      0.0310                 0.0168                 0.0649
 IR Inten    --      4.9332                 2.1221                 5.9929

                      7                      8                      9
                      A                      A                      A
 Frequencies --    157.2652               202.6762               232.4818
 Red. masses --      6.2356                 4.9188                 6.9937
 Frc consts  --      0.0909                 0.1190                 0.2227
 IR Inten    --      6.8447                 8.2982                 0.5406

                     10                     11                     12
                      A                      A                      A
 Frequencies --    263.1671               270.0077               275.3974
 Red. masses --      2.7493                 2.6280                 1.5669
 Frc consts  --      0.1122                 0.1129                 0.0700
 IR Inten    --     13.2710                30.5769                11.2448

                     13                     14                     15
                      A                      A                      A
 Frequencies --    318.5884               348.6298               380.8104
 Red. masses --      2.7501                 2.9705                 6.9384
 Frc consts  --      0.1645                 0.2127                 0.5928
 IR Inten    --     16.3962                 0.8153                 5.1170

                     16                     17                     18
                      A                      A                      A
 Frequencies --    403.1992               441.3246               445.4082
 Red. masses --      3.7760                 4.1154                 3.0809
 Frc consts  --      0.3617                 0.4723                 0.3601
 IR Inten    --     12.6428                23.7364                10.5630

                     19                     20                     21
                      A                      A                      A
 Frequencies --    449.9450               486.0170               541.2635
 Red. masses --      5.7607                12.1620                 7.2176
 Frc consts  --      0.6871                 1.6926                 1.2458
 IR Inten    --      6.6192                58.6869                81.5182

                     22                     23                     24
                      A                      A                      A
 Frequencies --    557.6285               579.7393               603.7412
 Red. masses --      5.7833                 7.1432                 6.1528
 Frc consts  --      1.0595                 1.4145                 1.3214
 IR Inten    --     23.0489                31.3937                16.5342

                     25                     26                     27
                      A                      A                      A
 Frequencies --    626.6920               692.9495               709.2432
 Red. masses --      3.6890                 2.2518                 7.2275
 Frc consts  --      0.8536                 0.6371                 2.1421
 IR Inten    --     29.4732               649.8546                13.3306

                     28                     29                     30
                      A                      A                      A
 Frequencies --    724.9951               734.6654               837.1904
 Red. masses --      7.1495                 5.2178                 1.1857
 Frc consts  --      2.2141                 1.6593                 0.4896
 IR Inten    --    317.5291                 0.5821                 2.1644

                     31                     32                     33
                      A                      A                      A
 Frequencies --    843.0202               846.8208               869.2868
 Red. masses --      1.4628                 5.0677                 1.3817
 Frc consts  --      0.6125                 2.1411                 0.6152
 IR Inten    --     81.2850               115.2911                54.6874

                     34                     35                     36
                      A                      A                      A
 Frequencies --    899.1446               911.9570               974.6678
 Red. masses --      3.3188                 3.3510                 3.1795
 Frc consts  --      1.5808                 1.6420                 1.7796
 IR Inten    --     49.8133                19.5415                40.2088

                     37                     38                     39
                      A                      A                      A
 Frequencies --    990.4653              1051.3750              1087.8570
 Red. masses --      1.3091                 3.8746                 3.2361
 Frc consts  --      0.7567                 2.5234                 2.2564
 IR Inten    --      0.2358                34.5609                88.5373

                     40                     41                     42
                      A                      A                      A
 Frequencies --   1107.9163              1121.6680              1145.1839
 Red. masses --      3.3206                 1.4885                 1.4401
 Frc consts  --      2.4015                 1.1034                 1.1127
 IR Inten    --     77.5869                17.9292                98.4724

                     43                     44                     45
                      A                      A                      A
 Frequencies --   1149.5629              1160.3140              1186.6674
 Red. masses --      2.0068                 6.5313                 1.5276
 Frc consts  --      1.5625                 5.1809                 1.2674
 IR Inten    --     53.3470               530.9304                10.2137

                     46                     47                     48
                      A                      A                      A
 Frequencies --   1270.2742              1300.0062              1315.7645
 Red. masses --      2.8089                 2.5329                 2.3962
 Frc consts  --      2.6704                 2.5220                 2.4442
 IR Inten    --    411.2215               210.6396                38.6280

                     49                     50                     51
                      A                      A                      A
 Frequencies --   1323.2803              1330.8634              1376.4719
 Red. masses --      1.0949                12.3458                 8.5789
 Frc consts  --      1.1296                12.8836                 9.5768
 IR Inten    --      2.4150               525.4902                42.3471

                     52                     53                     54
                      A                      A                      A
 Frequencies --   1409.9926              1444.6604              1475.1539
 Red. masses --      1.2357                 1.4016                 3.7846
 Frc consts  --      1.4475                 1.7235                 4.8523
 IR Inten    --      0.0017                66.1972                 5.6837

                     55                     56                     57
                      A                      A                      A
 Frequencies --   1489.9603              1501.4999              1507.2676
 Red. masses --      1.0383                 1.1055                 2.6576
 Frc consts  --      1.3580                 1.4684                 3.5573
 IR Inten    --     13.0106                 8.2605               164.8981

                     58                     59                     60
                      A                      A                      A
 Frequencies --   1534.5723              1585.1971              1586.0800
 Red. masses --      1.1983                 1.6971                 2.2728
 Frc consts  --      1.6626                 2.5127                 3.3687
 IR Inten    --      1.6796               185.7050               279.6457

                     61                     62                     63
                      A                      A                      A
 Frequencies --   1634.1389              1682.2299              3080.0040
 Red. masses --      8.2075                 6.9298                 1.0566
 Frc consts  --     12.9134                11.5543                 5.9054
 IR Inten    --      6.8572               250.8628                34.2802

                     64                     65                     66
                      A                      A                      A
 Frequencies --   3091.3435              3127.9427              3171.4983
 Red. masses --      1.0357                 1.1092                 1.1052
 Frc consts  --      5.8315                 6.3940                 6.5498
 IR Inten    --     22.4162                31.4019                47.2786

                     67                     68                     69
                      A                      A                      A
 Frequencies --   3172.6932              3243.3505              3256.1987
 Red. masses --      1.1028                 1.0898                 1.0972
 Frc consts  --      6.5404                 6.7544                 6.8542
 IR Inten    --     26.1805                 0.8974                 0.8154

                     70                     71                     72
                      A                      A                      A
 Frequencies --   3278.3789              3491.0242              3593.4613
 Red. masses --      1.0926                 1.0483                 1.1001
 Frc consts  --      6.9188                 7.5273                 8.3695
 IR Inten    --      6.5729               167.4797               182.7290

 - Thermochemistry -
 -------------------
 Temperature   298.150 Kelvin.  Pressure   1.00000 Atm.
 Atom     1 has atomic number  6 and mass  12.00000

 Molecular mass:   258.01329 amu.
 Principal axes and moments of inertia in atomic units:
                           1         2         3
     Eigenvalues --  1271.691829811.73831**********
           X            0.99993   0.01078   0.00469
           Y           -0.01080   0.99993   0.00407
           Z           -0.00465  -0.00412   0.99998
 This molecule is an asymmetric top.
 Rotational symmetry number  1.
 Warning -- assumption of classical behavior for rotation
           may cause significant error
 Rotational temperatures (Kelvin)      0.06811     0.00883     0.00811
 Rotational constants (GHZ):           1.41917     0.18394     0.16897
 Zero-point vibrational energy     505016.6 (Joules/Mol)
                                  120.70186 (Kcal/Mol)
 Warning -- explicit consideration of  24 degrees of freedom as
           vibrations may cause significant error
 Vibrational temperatures:     50.86    65.79   110.87   132.89   184.55
          (Kelvin)            217.52   226.27   291.61   334.49   378.64
                              388.48   396.24   458.38   501.60   547.90
                              580.11   634.97   640.84   647.37   699.27
                              778.76   802.30   834.12   868.65   901.67
                              997.00  1020.44  1043.11  1057.02  1204.53
                             1212.92  1218.39  1250.71  1293.67  1312.10
                             1402.33  1425.06  1512.69  1565.18  1594.04
                             1613.83  1647.66  1653.96  1669.43  1707.35
                             1827.64  1870.42  1893.09  1903.91  1914.82
                             1980.44  2028.66  2078.54  2122.42  2143.72
                             2160.32  2168.62  2207.91  2280.75  2282.02
                             2351.16  2420.35  4431.44  4447.75  4500.41
                             4563.08  4564.80  4666.46  4684.94  4716.86
                             5022.81  5170.19

 Zero-point correction=                           0.192351 (Hartree/Particle)
 Thermal correction to Energy=                    0.207279
 Thermal correction to Enthalpy=                  0.208223
 Thermal correction to Gibbs Free Energy=         0.149348
 Sum of electronic and zero-point Energies=          -1479.969986
 Sum of electronic and thermal Energies=             -1479.955058
 Sum of electronic and thermal Enthalpies=           -1479.954114
 Sum of electronic and thermal Free Energies=        -1480.012989

                     E (Thermal)             CV                S
                      KCal/Mol        Cal/Mol-Kelvin    Cal/Mol-Kelvin
 Total                  130.069             56.272            123.913
 Electronic               0.000              0.000              0.000
 Translational            0.889              2.981             42.543
 Rotational               0.889              2.981             33.255
 Vibrational            128.292             50.310             48.115
 Vibration     1          0.594              1.982              5.504
 Vibration     2          0.595              1.979              4.994
 Vibration     3          0.599              1.964              3.965
 Vibration     4          0.602              1.955              3.609
 Vibration     5          0.611              1.925              2.972
 Vibration     6          0.619              1.901              2.657
 Vibration     7          0.621              1.895              2.582
 Vibration     8          0.639              1.836              2.109
 Vibration     9          0.653              1.791              1.860
 Vibration    10          0.670              1.740              1.641
 Vibration    11          0.674              1.728              1.596
 Vibration    12          0.677              1.719              1.562
 Vibration    13          0.705              1.638              1.317
 Vibration    14          0.726              1.578              1.172
 Vibration    15          0.751              1.511              1.036
 Vibration    16          0.769              1.463              0.951
 Vibration    17          0.801              1.380              0.822
 Vibration    18          0.805              1.371              0.810
 Vibration    19          0.809              1.361              0.796
 Vibration    20          0.842              1.281              0.694
 Vibration    21          0.896              1.159              0.563
 Vibration    22          0.913              1.123              0.529
 Vibration    23          0.936              1.075              0.486
 Vibration    24          0.962              1.024              0.443

                           ! Non-Optimized Parameters !
 Normal termination of Gaussian 16 at Wed May 25 13:09:29 2022.
