 Gaussian 16, Revision C.01,
 Gaussian 16:  ES64L-G16RevC.01  3-Jul-2019

 -----------------------------------------------------
 #m062X/gen 6D OPT Freq=noraman SCRF=(SMD,Solvent=h2o)
 -----------------------------------------------------

 ------------------
 HA.20.smd.a2e2.smd
 ------------------
 Symbolic Z-matrix:
 Charge =  0 Multiplicity = 1

 SCF Done:  E(RM062X) =  -2261.99291655     A.U. after   17 cycles
 SCF Done:  E(RM062X) =  -2261.99427646     A.U. after   14 cycles
 SCF Done:  E(RM062X) =  -2261.99520307     A.U. after   15 cycles
 SCF Done:  E(RM062X) =  -2261.99577571     A.U. after   15 cycles
 SCF Done:  E(RM062X) =  -2261.99636502     A.U. after   14 cycles
 SCF Done:  E(RM062X) =  -2261.99688328     A.U. after   15 cycles
 SCF Done:  E(RM062X) =  -2261.99697584     A.U. after   14 cycles
 SCF Done:  E(RM062X) =  -2261.99691432     A.U. after   14 cycles
 SCF Done:  E(RM062X) =  -2261.99758356     A.U. after   16 cycles
 SCF Done:  E(RM062X) =  -2261.99749415     A.U. after   14 cycles
 SCF Done:  E(RM062X) =  -2261.99820465     A.U. after   13 cycles
 SCF Done:  E(RM062X) =  -2261.99820871     A.U. after   12 cycles
 SCF Done:  E(RM062X) =  -2261.99820425     A.U. after   12 cycles
 SCF Done:  E(RM062X) =  -2261.99821624     A.U. after   13 cycles
 SCF Done:  E(RM062X) =  -2261.99821496     A.U. after   12 cycles
 SCF Done:  E(RM062X) =  -2261.99821565     A.U. after   10 cycles
 SCF Done:  E(RM062X) =  -2261.99821649     A.U. after   12 cycles
 SCF Done:  E(RM062X) =  -2261.99821607     A.U. after   11 cycles
 SCF Done:  E(RM062X) =  -2261.99821618     A.U. after    9 cycles
 Optimization completed on the basis of negligible forces.
    -- Stationary point found.
 Normal termination of Gaussian 16 at Sat May 28 02:57:48 2022.

 ------------------------------------------------------------------
 #N Geom=AllCheck Guess=TCheck SCRF=Check GenChk RM062X/ChkBas Freq
 ------------------------------------------------------------------

 Structure from the checkpoint file:  "/jobfs/41522565.gadi-pbs/Gau-3762853.chk"
 ------------------
 HA.20.smd.a2e2.smd
 ------------------
 Charge =  0 Multiplicity = 1

                         Standard orientation:
 ---------------------------------------------------------------------
 Center     Atomic      Atomic             Coordinates (Angstroms)
 Number     Number       Type             X           Y           Z
 ---------------------------------------------------------------------
      1          6           0       -3.939534   -0.384413   -0.189385
      2         16           0       -4.986987   -1.702140    0.336953
      3          8           0       -5.462799   -2.363822   -0.874520
      4          8           0       -4.252546   -2.443566    1.354932
      5          7           0       -6.313873   -1.078202    1.075274
      6          1           0       -6.894062   -0.528846    0.437471
      7          1           0       -6.078448   -0.546183    1.915427
      8         16           0       -4.155002    0.364822   -1.733887
      9          6           0       -2.891116    1.469295   -1.408245
     10          6           0       -2.350963    1.253211   -0.170272
     11          6           0       -2.943912    0.180354    0.552852
     12         16           0       -0.983508    2.191061    0.440698
     13          6           0        0.421828    1.134641    0.212684
     14          8           0       -1.189283    2.388165    1.881493
     15          8           0       -0.838853    3.365450   -0.429939
     16          6           0        0.860082    0.352076    1.276438
     17          6           0        1.945155   -0.497249    1.068296
     18          6           0        2.573041   -0.566809   -0.178081
     19          6           0        2.099609    0.227805   -1.230706
     20          6           0        1.021279    1.084431   -1.046177
     21          1           0       -2.601338    2.210496   -2.144582
     22          1           0       -2.650195   -0.145497    1.545763
     23          1           0        0.372667    0.407526    2.244865
     24          1           0        2.309404   -1.111771    1.887575
     25          1           0        0.651006    1.697767   -1.862848
     26          6           0        3.749907   -1.486976   -0.394840
     27          7           0        5.027268   -0.769311   -0.465044
     28          1           0        2.578057    0.170726   -2.204844
     29          1           0        3.619068   -2.021103   -1.341954
     30          1           0        3.775709   -2.239717    0.412379
     31          6           0        5.343557   -0.153415    0.827590
     32          6           0        6.089103   -1.727495   -0.788885
     33          6           0        7.440924   -1.040090   -0.811254
     34          6           0        6.709490    0.506066    0.782634
     35          8           0        7.725181   -0.434064    0.446173
     36          1           0        5.331138   -0.914647    1.629935
     37          1           0        4.592712    0.605197    1.069293
     38          1           0        5.888385   -2.169156   -1.770232
     39          1           0        6.112635   -2.544447   -0.044296
     40          1           0        7.466554   -0.271317   -1.597279
     41          1           0        8.234879   -1.766393   -0.998331
     42          1           0        6.967665    0.911832    1.763214
     43          1           0        6.714039    1.322338    0.045606
 ---------------------------------------------------------------------

 SCF Done:  E(RM062X) =  -2261.99821618     A.U. after    1 cycles

 The electronic state is 1-A.
 Alpha  occ. eigenvalues --  -90.19748 -90.17011 -89.99987 -19.67143 -19.67073
 Alpha  occ. eigenvalues --  -19.66450 -19.66436 -19.65550 -14.80942 -14.76381
 Alpha  occ. eigenvalues --  -10.63225 -10.62527 -10.61319 -10.60517 -10.60063
 Alpha  occ. eigenvalues --  -10.58846 -10.58837 -10.58004 -10.57997 -10.57778
 Alpha  occ. eigenvalues --  -10.57426 -10.56795 -10.56766 -10.56524 -10.56460
 Alpha  occ. eigenvalues --   -8.50611  -8.48314  -8.34361  -6.42808  -6.42795
 Alpha  occ. eigenvalues --   -6.42727  -6.40505  -6.40436  -6.40364  -6.26353
 Alpha  occ. eigenvalues --   -6.26116  -6.25909  -1.27303  -1.25279  -1.16662
 Alpha  occ. eigenvalues --   -1.15831  -1.14559  -1.04183  -1.03980  -1.03254
 Alpha  occ. eigenvalues --   -0.98855  -0.91122  -0.88669  -0.87736  -0.86864
 Alpha  occ. eigenvalues --   -0.86452  -0.82553  -0.79084  -0.76771  -0.73991
 Alpha  occ. eigenvalues --   -0.73113  -0.71308  -0.68822  -0.68524  -0.65705
 Alpha  occ. eigenvalues --   -0.64761  -0.64336  -0.62385  -0.61842  -0.60905
 Alpha  occ. eigenvalues --   -0.58291  -0.58194  -0.56880  -0.55785  -0.55364
 Alpha  occ. eigenvalues --   -0.55011  -0.54193  -0.53578  -0.52679  -0.52113
 Alpha  occ. eigenvalues --   -0.51627  -0.50803  -0.50524  -0.50374  -0.49803
 Alpha  occ. eigenvalues --   -0.49024  -0.46296  -0.45847  -0.45259  -0.44899
 Alpha  occ. eigenvalues --   -0.44246  -0.43534  -0.43173  -0.42715  -0.42346
 Alpha  occ. eigenvalues --   -0.41628  -0.41506  -0.41488  -0.41101  -0.40479
 Alpha  occ. eigenvalues --   -0.39905  -0.39721  -0.37967  -0.37574  -0.35167
 Alpha  occ. eigenvalues --   -0.33586  -0.33358  -0.32545  -0.31863  -0.29313
 Alpha virt. eigenvalues --   -0.04201  -0.02111   0.00347   0.00590   0.01610
 Alpha virt. eigenvalues --    0.02117   0.02192   0.02749   0.03135   0.03461
 Alpha virt. eigenvalues --    0.03718   0.03800   0.03893   0.04420   0.04506

 Mulliken charges:
               1
     1  C   -1.300146
     2  S    1.771365
     3  O   -0.615689
     4  O   -0.623342
     5  N   -0.970347
     6  H    0.510605
     7  H    0.503695
     8  S    0.398243
     9  C   -0.200733
    10  C   -0.542778
    11  C    0.502164
    12  S    0.563623
    13  C   -0.074270
    14  O   -0.485445
    15  O   -0.505689
    16  C   -0.410091
    17  C   -0.039794
    18  C    0.226459
    19  C   -0.588717
    20  C    0.498279
    21  H    0.350131
    22  H    0.327636
    23  H    0.286214
    24  H    0.263728
    25  H    0.285678
    26  C   -0.598923
    27  N   -0.427598
    28  H    0.264011
    29  H    0.253588
    30  H    0.239607
    31  C   -0.071485
    32  C   -0.188423
    33  C   -0.477027
    34  C   -0.566390
    35  O   -0.445906
    36  H    0.234715
    37  H    0.252724
    38  H    0.241193
    39  H    0.235133
    40  H    0.226427
    41  H    0.235064
    42  H    0.235719
    43  H    0.226791
 Sum of Mulliken charges =   0.00000

 Dipole moment (field-independent basis, Debye):
    X=             -0.2238    Y=              0.0946    Z=             -2.7583  Tot=              2.7690
 Quadrupole moment (field-independent basis, Debye-Ang):
   XX=           -166.4552   YY=           -206.0886   ZZ=           -161.2146
   XY=            -37.6569   XZ=             -9.0949   YZ=             -5.6762

  Exact polarizability:     386.666      -7.904     336.509       3.502     -22.759     363.921
 Approx polarizability:     313.258      -6.458     291.479       9.265     -20.238     334.820

                      1                      2                      3
                      A                      A                      A
 Frequencies --     14.5539                16.1179                28.8280
 Red. masses --      4.4838                 8.8093                 8.4390
 Frc consts  --      0.0006                 0.0013                 0.0041
 IR Inten    --      1.2363                 1.6127                 2.6206

                      4                      5                      6
                      A                      A                      A
 Frequencies --     42.5386                45.9211                56.0377
 Red. masses --      5.3168                 3.8544                 4.1758
 Frc consts  --      0.0057                 0.0048                 0.0077
 IR Inten    --      1.3517                 1.0542                 0.4562

                      7                      8                      9
                      A                      A                      A
 Frequencies --     58.5022                90.2223               107.1117
 Red. masses --      6.7515                 9.6684                 6.2819
 Frc consts  --      0.0136                 0.0464                 0.0425
 IR Inten    --     14.7544                16.7980                 8.9347

                     10                     11                     12
                      A                      A                      A
 Frequencies --    137.1155               151.6087               178.1950
 Red. masses --      5.5420                 6.3847                 6.5493
 Frc consts  --      0.0614                 0.0865                 0.1225
 IR Inten    --      2.6767                 1.7307                 3.3743

                     13                     14                     15
                      A                      A                      A
 Frequencies --    195.4546               225.0883               232.0157
 Red. masses --      6.5257                 6.6297                 6.0982
 Frc consts  --      0.1469                 0.1979                 0.1934
 IR Inten    --      3.1670                 6.4053                 6.1400

                     16                     17                     18
                      A                      A                      A
 Frequencies --    243.4642               276.9016               286.6288
 Red. masses --      9.9833                 1.8827                 2.0052
 Frc consts  --      0.3487                 0.0851                 0.0971
 IR Inten    --      1.0529                 1.8761                25.6273

                     19                     20                     21
                      A                      A                      A
 Frequencies --    299.8145               311.0115               322.6636
 Red. masses --      4.3350                 5.8444                 4.9692
 Frc consts  --      0.2296                 0.3331                 0.3048
 IR Inten    --     34.0081                 1.3668                 1.8841

                     22                     23                     24
                      A                      A                      A
 Frequencies --    340.1374               357.0045               371.8123
 Red. masses --      4.0749                 3.0097                 5.4079
 Frc consts  --      0.2778                 0.2260                 0.4405
 IR Inten    --      1.6070                25.8237                 9.6685

                     25                     26                     27
                      A                      A                      A
 Frequencies --    380.5393               409.1228               413.9588
 Red. masses --      2.4923                 3.3222                 2.9804
 Frc consts  --      0.2126                 0.3276                 0.3009
 IR Inten    --      8.5545                11.3207                 0.7289

                     28                     29                     30
                      A                      A                      A
 Frequencies --    450.6707               451.6602               458.0201
 Red. masses --      3.9049                 2.2294                 5.3109
 Frc consts  --      0.4673                 0.2680                 0.6564
 IR Inten    --     13.7956                 1.5346                21.0339

                     31                     32                     33
                      A                      A                      A
 Frequencies --    461.2395               481.5082               502.2689
 Red. masses --      5.0771                 6.9332                 3.0177
 Frc consts  --      0.6364                 0.9471                 0.4485
 IR Inten    --     12.2808                13.3831                 3.7954

                     34                     35                     36
                      A                      A                      A
 Frequencies --    515.1924               532.8910               544.3084
 Red. masses --      4.8414                 7.1145                 6.5229
 Frc consts  --      0.7571                 1.1903                 1.1386
 IR Inten    --     96.3606                64.8812                14.2644

                     37                     38                     39
                      A                      A                      A
 Frequencies --    578.3821               600.3289               624.8418
 Red. masses --      7.3873                 5.0686                 4.0823
 Frc consts  --      1.4560                 1.0763                 0.9391
 IR Inten    --    329.9778               114.0382               182.9138

                     40                     41                     42
                      A                      A                      A
 Frequencies --    639.2600               644.0685               689.2531
 Red. masses --      5.5447                 2.1244                 3.8991
 Frc consts  --      1.3350                 0.5192                 1.0914
 IR Inten    --      0.3336                11.0341               241.2162

                     43                     44                     45
                      A                      A                      A
 Frequencies --    697.3192               724.1693               750.9427
 Red. masses --      3.6540                 3.3364                 4.2193
 Frc consts  --      1.0468                 1.0309                 1.4019
 IR Inten    --    117.4326               611.9888                26.0336

                     46                     47                     48
                      A                      A                      A
 Frequencies --    823.0020               832.3566               844.0130
 Red. masses --      2.1602                 1.3710                 3.2807
 Frc consts  --      0.8621                 0.5596                 1.3769
 IR Inten    --     46.1561                25.2942                11.2403

                     49                     50                     51
                      A                      A                      A
 Frequencies --    866.7799               871.8838               878.2811
 Red. masses --      1.2543                 2.1475                 2.5636
 Frc consts  --      0.5552                 0.9618                 1.1651
 IR Inten    --      0.3071                31.3340                16.8584

                     52                     53                     54
                      A                      A                      A
 Frequencies --    887.7293               893.0084               905.2920
 Red. masses --      2.3344                 1.6315                 3.3543
 Frc consts  --      1.0839                 0.7666                 1.6197
 IR Inten    --     21.5206                30.0562                61.2755

                     55                     56                     57
                      A                      A                      A
 Frequencies --    906.2396               915.2347               950.8101
 Red. masses --      2.9061                 3.5203                 2.0628
 Frc consts  --      1.4062                 1.7374                 1.0987
 IR Inten    --     58.5045                59.3231                40.1733

                     58                     59                     60
                      A                      A                      A
 Frequencies --    998.9470              1013.5249              1017.0732
 Red. masses --      1.3454                 1.5763                 1.5004
 Frc consts  --      0.7910                 0.9540                 0.9145
 IR Inten    --      7.5453                 2.9782                 1.9634

                     61                     62                     63
                      A                      A                      A
 Frequencies --   1030.3423              1043.4739              1056.6917
 Red. masses --      3.4412                 2.5672                 3.7931
 Frc consts  --      2.1524                 1.6469                 2.4954
 IR Inten    --     22.6796                46.4379               152.6359

                     64                     65                     66
                      A                      A                      A
 Frequencies --   1066.1607              1095.0293              1102.4965
 Red. masses --      1.9616                 4.0485                 1.7834
 Frc consts  --      1.3137                 2.8602                 1.2772
 IR Inten    --     15.8506               160.8439                15.1100

                     67                     68                     69
                      A                      A                      A
 Frequencies --   1132.0321              1138.3785              1139.5776
 Red. masses --      1.8058                 1.4236                 1.4708
 Frc consts  --      1.3635                 1.0870                 1.1254
 IR Inten    --    117.9611                16.2607                42.9550

                     70                     71                     72
                      A                      A                      A
 Frequencies --   1145.4879              1151.5263              1159.7127
 Red. masses --      5.0163                 2.1747                 3.9394
 Frc consts  --      3.8781                 1.6990                 3.1216
 IR Inten    --    696.9950                34.2037                27.1140

                     73                     74                     75
                      A                      A                      A
 Frequencies --   1164.4176              1179.6591              1205.0879
 Red. masses --      2.6163                 4.8578                 1.1781
 Frc consts  --      2.0900                 3.9829                 1.0080
 IR Inten    --     72.8710               210.0749                 5.4328

                     76                     77                     78
                      A                      A                      A
 Frequencies --   1209.7638              1225.7322              1244.4626
 Red. masses --      2.8411                 1.3650                 1.0875
 Frc consts  --      2.4498                 1.2083                 0.9923
 IR Inten    --      8.2749                20.4710                 2.6255

                     79                     80                     81
                      A                      A                      A
 Frequencies --   1255.2580              1272.8411              1278.2141
 Red. masses --      2.5398                 1.4672                 8.7891
 Frc consts  --      2.3579                 1.4005                 8.4606
 IR Inten    --      3.2600                59.7797               438.3648

                     82                     83                     84
                      A                      A                      A
 Frequencies --   1307.4171              1326.8932              1328.1549
 Red. masses --      1.3284                 1.4548                11.6807
 Frc consts  --      1.3379                 1.5091                12.1399
 IR Inten    --     42.0372                36.3261               534.6803

                     85                     86                     87
                      A                      A                      A
 Frequencies --   1336.6980              1348.2839              1366.2525
 Red. masses --      1.5986                 1.1779                 2.4979
 Frc consts  --      1.6829                 1.2616                 2.7472
 IR Inten    --      1.9062                 3.1932                41.1097

                     88                     89                     90
                      A                      A                      A
 Frequencies --   1377.8728              1401.9988              1404.0239
 Red. masses --      1.2829                 3.9150                 1.4436
 Frc consts  --      1.4350                 4.5339                 1.6766
 IR Inten    --      5.5643                 2.9952                63.6942

                     91                     92                     93
                      A                      A                      A
 Frequencies --   1418.8887              1434.3221              1451.8020
 Red. masses --      1.4542                 1.4167                 1.9598
 Frc consts  --      1.7249                 1.7172                 2.4338
 IR Inten    --     13.8945                 1.5114                20.4245

                     94                     95                     96
                      A                      A                      A
 Frequencies --   1456.8731              1493.1704              1494.5158
 Red. masses --      2.3104                 1.0826                 8.5154
 Frc consts  --      2.8893                 1.4221                11.2062
 IR Inten    --     20.0710                 0.7440                61.3387

                     97                     98                     99
                      A                      A                      A
 Frequencies --   1500.2522              1503.0633              1509.6727
 Red. masses --      1.1076                 1.0900                 1.1003
 Frc consts  --      1.4688                 1.4509                 1.4774
 IR Inten    --     18.3340                 2.3915                10.7630

                    100                    101                    102
                      A                      A                      A
 Frequencies --   1513.9824              1543.8161              1594.6897
 Red. masses --      1.1007                 2.5044                 1.0991
 Frc consts  --      1.4865                 3.5168                 1.6468
 IR Inten    --      3.9579                 2.5758               113.6145

                    103                    104                    105
                      A                      A                      A
 Frequencies --   1598.8665              1659.5238              1677.1461
 Red. masses --      6.7414                 7.1127                 6.3092
 Frc consts  --     10.1537                11.5412                10.4561
 IR Inten    --     50.5151                 3.8113                28.9978

                    106                    107                    108
                      A                      A                      A
 Frequencies --   2991.2861              2995.7960              3012.4452
 Red. masses --      1.0715                 1.0712                 1.0704
 Frc consts  --      5.6489                 5.6644                 5.7233
 IR Inten    --     88.8854               169.8224               107.0918

                    109                    110                    111
                      A                      A                      A
 Frequencies --   3059.8321              3060.1375              3124.1598
 Red. masses --      1.0687                 1.0688                 1.0920
 Frc consts  --      5.8953                 5.8968                 6.2798
 IR Inten    --     81.9028                89.4560                24.7003

                    112                    113                    114
                      A                      A                      A
 Frequencies --   3134.3335              3136.8672              3162.7954
 Red. masses --      1.0909                 1.0904                 1.0967
 Frc consts  --      6.3142                 6.3215                 6.4638
 IR Inten    --     48.5273                39.7362                45.7166

                    115                    116                    117
                      A                      A                      A
 Frequencies --   3163.9504              3228.0527              3230.1891
 Red. masses --      1.0972                 1.0913                 1.0899
 Frc consts  --      6.4715                 6.7001                 6.7003
 IR Inten    --     35.2568                 4.2616                 4.3327

                    118                    119                    120
                      A                      A                      A
 Frequencies --   3244.4949              3253.5158              3273.2160
 Red. masses --      1.0956                 1.0942                 1.0963
 Frc consts  --      6.7948                 6.8244                 6.9203
 IR Inten    --      1.6354                 2.3796                28.1040

                    121                    122                    123
                      A                      A                      A
 Frequencies --   3292.0915              3495.6317              3598.4172
 Red. masses --      1.0963                 1.0481                 1.0995
 Frc consts  --      7.0002                 7.5457                 8.3880
 IR Inten    --     62.3007               162.7160               171.2585

 - Thermochemistry -
 -------------------
 Temperature   298.150 Kelvin.  Pressure   1.00000 Atm.
 Atom     1 has atomic number  6 and mass  12.00000

 Molecular mass:   402.03779 amu.
 Principal axes and moments of inertia in atomic units:
                           1         2         3
     Eigenvalues --  4770.50941********************
           X            0.99997  -0.00736  -0.00320
           Y            0.00734   0.99997  -0.00382
           Z            0.00322   0.00379   0.99999
 This molecule is an asymmetric top.
 Rotational symmetry number  1.
 Warning -- assumption of classical behavior for rotation
           may cause significant error
 Rotational temperatures (Kelvin)      0.01816     0.00313     0.00293
 Rotational constants (GHZ):           0.37831     0.06530     0.06106
 Zero-point vibrational energy     875335.1 (Joules/Mol)
                                  209.21012 (Kcal/Mol)
 Warning -- explicit consideration of  38 degrees of freedom as
           vibrations may cause significant error
 Vibrational temperatures:     20.94    23.19    41.48    61.20    66.07
          (Kelvin)             80.63    84.17   129.81   154.11   197.28
                              218.13   256.38   281.22   323.85   333.82
                              350.29   398.40   412.39   431.37   447.48
                              464.24   489.38   513.65   534.95   547.51
                              588.64   595.59   648.41   649.84   658.99
                              663.62   692.78   722.65   741.25   766.71
                              783.14   832.16   863.74   899.01   919.75
                              926.67   991.68  1003.29  1041.92  1080.44
                             1184.12  1197.58  1214.35  1247.10  1254.45
                             1263.65  1277.24  1284.84  1302.51  1303.88
                             1316.82  1368.00  1437.26  1458.24  1463.34
                             1482.43  1501.33  1520.34  1533.97  1575.50
                             1586.25  1628.74  1637.87  1639.60  1648.10
                             1656.79  1668.57  1675.34  1697.27  1733.85
                             1740.58  1763.56  1790.50  1806.04  1831.33
                             1839.06  1881.08  1909.10  1910.92  1923.21
                             1939.88  1965.73  1982.45  2017.16  2020.08
                             2041.46  2063.67  2088.82  2096.12  2148.34
                             2150.27  2158.53  2162.57  2172.08  2178.28
                             2221.21  2294.40  2300.41  2387.68  2413.04
                             4303.79  4310.28  4334.24  4402.42  4402.86
                             4494.97  4509.61  4513.25  4550.56  4552.22
                             4644.45  4647.52  4668.10  4681.08  4709.43
                             4736.59  5029.43  5177.32

 Zero-point correction=                           0.333398 (Hartree/Particle)
 Thermal correction to Energy=                    0.356516
 Thermal correction to Enthalpy=                  0.357460
 Thermal correction to Gibbs Free Energy=         0.277188
 Sum of electronic and zero-point Energies=          -2261.664819
 Sum of electronic and thermal Energies=             -2261.641700
 Sum of electronic and thermal Enthalpies=           -2261.640756
 Sum of electronic and thermal Free Energies=        -2261.721029

                     E (Thermal)             CV                S
                      KCal/Mol        Cal/Mol-Kelvin    Cal/Mol-Kelvin
 Total                  223.717             88.405            168.948
 Electronic               0.000              0.000              0.000
 Translational            0.889              2.981             43.865
 Rotational               0.889              2.981             36.609
 Vibrational            221.940             82.443             88.474
 Vibration     1          0.593              1.986              7.266
 Vibration     2          0.593              1.986              7.063
 Vibration     3          0.593              1.984              5.908
 Vibration     4          0.595              1.980              5.137
 Vibration     5          0.595              1.979              4.986
 Vibration     6          0.596              1.975              4.592
 Vibration     7          0.596              1.974              4.507
 Vibration     8          0.602              1.956              3.655
 Vibration     9          0.606              1.944              3.321
 Vibration    10          0.614              1.916              2.844
 Vibration    11          0.619              1.901              2.652
 Vibration    12          0.629              1.869              2.347
 Vibration    13          0.636              1.846              2.175
 Vibration    14          0.650              1.803              1.918
 Vibration    15          0.653              1.792              1.863
 Vibration    16          0.659              1.774              1.777
 Vibration    17          0.678              1.716              1.553
 Vibration    18          0.684              1.699              1.494
 Vibration    19          0.692              1.674              1.418
 Vibration    20          0.700              1.653              1.357
 Vibration    21          0.708              1.630              1.297
 Vibration    22          0.720              1.595              1.212
 Vibration    23          0.732              1.561              1.135
 Vibration    24          0.744              1.530              1.072
 Vibration    25          0.750              1.512              1.037
 Vibration    26          0.773              1.450              0.930
 Vibration    27          0.778              1.440              0.913
 Vibration    28          0.809              1.359              0.794
 Vibration    29          0.810              1.357              0.791
 Vibration    30          0.816              1.343              0.772
 Vibration    31          0.819              1.336              0.763
 Vibration    32          0.838              1.291              0.706
 Vibration    33          0.858              1.245              0.652
 Vibration    34          0.870              1.216              0.621
 Vibration    35          0.888              1.177              0.581
 Vibration    36          0.899              1.152              0.556
 Vibration    37          0.935              1.078              0.488
 Vibration    38          0.958              1.031              0.449

 Optimization completed.
    -- Stationary point found.
 Normal termination of Gaussian 16 at Sat May 28 03:35:21 2022.
