 Gaussian 16, Revision C.01,
 Gaussian 16:  ES64L-G16RevC.01  3-Jul-2019

 -----------------------------------------------------
 #m062X/gen 6D OPT Freq=noraman SCRF=(SMD,Solvent=h2o)
 -----------------------------------------------------

 ------------------
 HA.23.smd.a1b2.smd
 ------------------
 Symbolic Z-matrix:
 Charge =  0 Multiplicity = 1

 SCF Done:  E(RM062X) =  -1244.13936548     A.U. after   15 cycles
 SCF Done:  E(RM062X) =  -1244.14357704     A.U. after   13 cycles
 SCF Done:  E(RM062X) =  -1244.14737169     A.U. after   13 cycles
 SCF Done:  E(RM062X) =  -1244.14966954     A.U. after   13 cycles
 SCF Done:  E(RM062X) =  -1244.15086694     A.U. after   12 cycles
 SCF Done:  E(RM062X) =  -1244.15149024     A.U. after   12 cycles
 SCF Done:  E(RM062X) =  -1244.15184413     A.U. after   12 cycles
 SCF Done:  E(RM062X) =  -1244.15198852     A.U. after   12 cycles
 SCF Done:  E(RM062X) =  -1244.15204808     A.U. after   11 cycles
 SCF Done:  E(RM062X) =  -1244.15206460     A.U. after   11 cycles
 SCF Done:  E(RM062X) =  -1244.15206873     A.U. after   10 cycles
 SCF Done:  E(RM062X) =  -1244.15206994     A.U. after   10 cycles
 SCF Done:  E(RM062X) =  -1244.15206973     A.U. after    9 cycles
 Optimization completed.
    -- Stationary point found.
 Normal termination of Gaussian 16 at Thu Jun 23 14:27:10 2022.

 ------------------------------------------------------------------
 #N Geom=AllCheck Guess=TCheck SCRF=Check GenChk RM062X/ChkBas Freq
 ------------------------------------------------------------------

 Structure from the checkpoint file:  "/jobfs/45185364.gadi-pbs/Gau-2116477.chk"
 ------------------
 HA.23.smd.a1b2.smd
 ------------------
 Charge =  0 Multiplicity = 1

                         Standard orientation:
 ---------------------------------------------------------------------
 Center     Atomic      Atomic             Coordinates (Angstroms)
 Number     Number       Type             X           Y           Z
 ---------------------------------------------------------------------
      1          6           0        0.001415    0.211360   -0.103473
      2          6           0       -2.354487    0.135773    0.032620
      3          7           0       -3.667522   -0.145780    0.041358
      4         16           0       -1.127760   -1.106053   -0.041474
      5         16           0        1.760936   -0.033403   -0.116884
      6          8           0        1.949284   -1.430765   -0.489984
      7          8           0        2.343020    1.041128   -0.906335
      8          7           0        2.323022    0.133670    1.411321
      9          1           0        1.946662   -0.571484    2.048516
     10          7           0       -0.523849    1.387282   -0.067384
     11          7           0       -1.875756    1.367129    0.006771
     12          1           0       -3.990101   -1.065891    0.318397
     13          1           0        2.196717    1.079621    1.777655
     14          1           0       -4.295370    0.627239    0.240369
 ---------------------------------------------------------------------

 SCF Done:  E(RM062X) =  -1244.15206973     A.U. after    1 cycles

 The electronic state is 1-A.
 Alpha  occ. eigenvalues --  -90.20024 -89.99598 -19.67477 -19.67421 -14.83592
 Alpha  occ. eigenvalues --  -14.81251 -14.80734 -14.80399 -10.68537 -10.65423
 Alpha  occ. eigenvalues --   -8.50909  -8.34131  -6.43100  -6.43088  -6.43033
 Alpha  occ. eigenvalues --   -6.26116  -6.25922  -6.25612  -1.27736  -1.18095
 Alpha  occ. eigenvalues --   -1.16208  -1.06656  -1.04344  -0.94825  -0.91421
 Alpha  occ. eigenvalues --   -0.80026  -0.71971  -0.69845  -0.65467  -0.62680
 Alpha  occ. eigenvalues --   -0.61272  -0.60574  -0.56203  -0.55211  -0.54298
 Alpha  occ. eigenvalues --   -0.51792  -0.45394  -0.45149  -0.43787  -0.42974
 Alpha  occ. eigenvalues --   -0.41451  -0.40696  -0.38751  -0.37289  -0.36352
 Alpha  occ. eigenvalues --   -0.30433
 Alpha virt. eigenvalues --   -0.02952   0.00608   0.00739   0.02887   0.03477
 Alpha virt. eigenvalues --    0.03774   0.04891   0.05165   0.05981   0.07129
 Alpha virt. eigenvalues --    0.07234   0.07363   0.08497   0.09041   0.10222

 Mulliken charges:
               1
     1  C   -0.706272
     2  C   -0.118855
     3  N   -0.755440
     4  S    0.684656
     5  S    1.510622
     6  O   -0.656322
     7  O   -0.604778
     8  N   -0.979741
     9  H    0.504958
    10  N   -0.130429
    11  N   -0.212299
    12  H    0.475820
    13  H    0.507301
    14  H    0.480780
 Sum of Mulliken charges =  -0.00000

 Dipole moment (field-independent basis, Debye):
    X=             -8.0487    Y=             -3.4994    Z=              6.7943  Tot=             11.0991
 Quadrupole moment (field-independent basis, Debye-Ang):
   XX=            -58.9325   YY=            -80.9031   ZZ=            -67.3619
   XY=              9.4415   XZ=              6.3975   YZ=              1.1416

  Exact polarizability:     172.514      -0.252     131.188       0.773      -0.761      89.096
 Approx polarizability:     144.275      -0.854     138.870      -0.708      -0.968      85.192

                      1                      2                      3
                      A                      A                      A
 Frequencies --     42.5108                94.7074               135.5915
 Red. masses --      8.7926                 5.5028                 9.1382
 Frc consts  --      0.0094                 0.0291                 0.0990
 IR Inten    --     12.4305                 3.3890                11.2178

                      4                      5                      6
                      A                      A                      A
 Frequencies --    214.7342               233.2438               281.6113
 Red. masses --      4.6488                 1.3594                 4.5309
 Frc consts  --      0.1263                 0.0436                 0.2117
 IR Inten    --     68.7674               525.9417                20.2376

                      7                      8                      9
                      A                      A                      A
 Frequencies --    305.4805               339.0367               361.7128
 Red. masses --      3.6244                 1.7253                 1.9878
 Frc consts  --      0.1993                 0.1168                 0.1532
 IR Inten    --     16.8933                59.4180                17.6919

                     10                     11                     12
                      A                      A                      A
 Frequencies --    383.9752               423.8469               460.7990
 Red. masses --      2.3787                 3.2754                 3.2114
 Frc consts  --      0.2066                 0.3467                 0.4018
 IR Inten    --     44.4924                13.1902                31.2925

                     13                     14                     15
                      A                      A                      A
 Frequencies --    496.5134               565.4093               596.2063
 Red. masses --      9.2614                 8.4282                10.4991
 Frc consts  --      1.3452                 1.5875                 2.1988
 IR Inten    --     88.7032               123.2329                30.1238

                     16                     17                     18
                      A                      A                      A
 Frequencies --    648.9614               654.8425               692.5182
 Red. masses --      8.3036                 9.9446                 5.1874
 Frc consts  --      2.0604                 2.5125                 1.4657
 IR Inten    --     11.6878                 5.5108                33.5355

                     19                     20                     21
                      A                      A                      A
 Frequencies --    713.1877               805.9870               909.0934
 Red. masses --      2.1743                11.3146                 2.9732
 Frc consts  --      0.6516                 4.3306                 1.4477
 IR Inten    --    851.0234                 2.0555                45.1007

                     22                     23                     24
                      A                      A                      A
 Frequencies --   1076.2294              1104.5476              1131.8354
 Red. masses --      1.8331                 6.8766                 1.3692
 Frc consts  --      1.2510                 4.9430                 1.0335
 IR Inten    --     17.7599                62.6920                22.6636

                     25                     26                     27
                      A                      A                      A
 Frequencies --   1156.3259              1226.0915              1334.8685
 Red. masses --     12.7291                 9.1345                12.0307
 Frc consts  --     10.0279                 8.0906                12.6304
 IR Inten    --    500.6169                16.7336               536.6133

                     28                     29                     30
                      A                      A                      A
 Frequencies --   1362.9127              1539.4807              1554.2778
 Red. masses --      3.9712                 4.1373                 6.0166
 Frc consts  --      4.3462                 5.7771                 8.5637
 IR Inten    --    129.8494               539.8517                30.0138

                     31                     32                     33
                      A                      A                      A
 Frequencies --   1588.5077              1633.8162              3500.6666
 Red. masses --      1.1002                 1.4952                 1.0480
 Frc consts  --      1.6357                 2.3516                 7.5671
 IR Inten    --    110.1625               602.2805               164.4053

                     34                     35                     36
                      A                      A                      A
 Frequencies --   3560.1126              3603.3057              3674.5962
 Red. masses --      1.0477                 1.0993                 1.1047
 Frc consts  --      7.8236                 8.4096                 8.7889
 IR Inten    --    342.7424               183.5521               200.4986

 - Thermochemistry -
 -------------------
 Temperature   298.150 Kelvin.  Pressure   1.00000 Atm.
 Atom     1 has atomic number  6 and mass  12.00000

 Molecular mass:   179.97757 amu.
 Principal axes and moments of inertia in atomic units:
                           1         2         3
     Eigenvalues --   713.160842743.457253077.98476
           X            0.99995   0.00493   0.00821
           Y           -0.00498   0.99997   0.00618
           Z           -0.00818  -0.00622   0.99995
 This molecule is an asymmetric top.
 Rotational symmetry number  1.
 Warning -- assumption of classical behavior for rotation
           may cause significant error
 Rotational temperatures (Kelvin)      0.12145     0.03157     0.02814
 Rotational constants (GHZ):           2.53062     0.65783     0.58634
 Zero-point vibrational energy     229728.1 (Joules/Mol)
                                   54.90634 (Kcal/Mol)
 Warning -- explicit consideration of  15 degrees of freedom as
           vibrations may cause significant error
 Vibrational temperatures:     61.16   136.26   195.09   308.95   335.59
          (Kelvin)            405.18   439.52   487.80   520.42   552.45
                              609.82   662.99   714.37   813.50   857.81
                              933.71   942.17   996.38  1026.12  1159.64
                             1307.98  1548.45  1589.20  1628.46  1663.70
                             1764.07  1920.58  1960.93  2214.97  2236.26
                             2285.51  2350.70  5036.68  5122.21  5184.35
                             5286.92

 Zero-point correction=                           0.087499 (Hartree/Particle)
 Thermal correction to Energy=                    0.097420
 Thermal correction to Enthalpy=                  0.098364
 Thermal correction to Gibbs Free Energy=         0.051495
 Sum of electronic and zero-point Energies=          -1244.064571
 Sum of electronic and thermal Energies=             -1244.054650
 Sum of electronic and thermal Enthalpies=           -1244.053706
 Sum of electronic and thermal Free Energies=        -1244.100574

                     E (Thermal)             CV                S
                      KCal/Mol        Cal/Mol-Kelvin    Cal/Mol-Kelvin
 Total                   61.132             35.964             98.643
 Electronic               0.000              0.000              0.000
 Translational            0.889              2.981             41.470
 Rotational               0.889              2.981             30.178
 Vibrational             59.354             30.002             26.995
 Vibration     1          0.595              1.980              5.139
 Vibration     2          0.603              1.953              3.560
 Vibration     3          0.613              1.918              2.865
 Vibration     4          0.645              1.819              2.003
 Vibration     5          0.654              1.790              1.854
 Vibration     6          0.681              1.708              1.524
 Vibration     7          0.696              1.663              1.387
 Vibration     8          0.719              1.597              1.217
 Vibration     9          0.736              1.551              1.115
 Vibration    10          0.753              1.504              1.023
 Vibration    11          0.786              1.418              0.879
 Vibration    12          0.819              1.337              0.764
 Vibration    13          0.852              1.258              0.667
 Vibration    14          0.921              1.106              0.513
 Vibration    15          0.954              1.040              0.456

                           ! Non-Optimized Parameters !
 Normal termination of Gaussian 16 at Thu Jun 23 14:29:17 2022.
