 Gaussian 16, Revision C.01,
 Gaussian 16:  ES64L-G16RevC.01  3-Jul-2019

 -----------------------------------------------------
 #m062X/gen 6D OPT Freq=noraman SCRF=(SMD,Solvent=h2o)
 -----------------------------------------------------

 ------------------
 HA.28.smd.a2c3.smd
 ------------------
 Symbolic Z-matrix:
 Charge =  0 Multiplicity = 1

 SCF Done:  E(RM062X) =  -2530.97690317     A.U. after   16 cycles
 SCF Done:  E(RM062X) =  -2530.97919618     A.U. after   14 cycles
 SCF Done:  E(RM062X) =  -2530.97982980     A.U. after   13 cycles
 SCF Done:  E(RM062X) =  -2530.97995651     A.U. after   12 cycles
 SCF Done:  E(RM062X) =  -2530.98002966     A.U. after   12 cycles
 SCF Done:  E(RM062X) =  -2530.98006675     A.U. after   12 cycles
 SCF Done:  E(RM062X) =  -2530.98008703     A.U. after   12 cycles
 SCF Done:  E(RM062X) =  -2530.98009321     A.U. after   11 cycles
 SCF Done:  E(RM062X) =  -2530.98009579     A.U. after   11 cycles
 SCF Done:  E(RM062X) =  -2530.98009878     A.U. after   11 cycles
 SCF Done:  E(RM062X) =  -2530.98010177     A.U. after   12 cycles
 SCF Done:  E(RM062X) =  -2530.98010425     A.U. after   12 cycles
 SCF Done:  E(RM062X) =  -2530.98010442     A.U. after   12 cycles
 SCF Done:  E(RM062X) =  -2530.98010473     A.U. after    9 cycles
 SCF Done:  E(RM062X) =  -2530.98010485     A.U. after    9 cycles
 Optimization completed.
    -- Stationary point found.
 Normal termination of Gaussian 16 at Wed Jun 29 17:26:18 2022.

 ------------------------------------------------------------------
 #N Geom=AllCheck Guess=TCheck SCRF=Check GenChk RM062X/ChkBas Freq
 ------------------------------------------------------------------

 Structure from the checkpoint file:  "/jobfs/48773064.gadi-pbs/Gau-3607238.chk"
 ------------------
 HA.28.smd.a2c3.smd
 ------------------
 Charge =  0 Multiplicity = 1

                         Standard orientation:
 ---------------------------------------------------------------------
 Center     Atomic      Atomic             Coordinates (Angstroms)
 Number     Number       Type             X           Y           Z
 ---------------------------------------------------------------------
      1          6           0       -2.123084   -0.036204   -0.035617
      2          6           0       -1.837186    1.323025   -0.278498
      3         17           0       -3.105907    2.511066   -0.315425
      4          6           0       -0.549289    1.764215   -0.477260
      5          1           0       -0.347461    2.816724   -0.650410
      6          6           0        0.529158    0.850827   -0.457684
      7          6           0        0.223875   -0.503285   -0.222021
      8         16           0        1.518893   -1.690133   -0.228334
      9          6           0       -1.073881   -0.942640   -0.003213
     10          1           0       -1.271606   -1.992439    0.193813
     11         16           0       -3.767542   -0.665010    0.216009
     12          8           0       -4.617474   -0.219056   -0.885286
     13          8           0       -3.621158   -2.096082    0.469924
     14          7           0       -4.406138   -0.019047    1.588189
     15          1           0       -4.605107    0.978917    1.506677
     16          1           0       -3.839396   -0.221017    2.414122
     17          7           0        1.797911    1.287428   -0.617209
     18          6           0        2.954238    0.420328   -0.725657
     19          7           0        2.810428   -0.708044    0.221502
     20          8           0        1.302101   -2.671646    0.833398
     21          8           0        1.708840   -2.222080   -1.584349
     22          6           0        4.217174    1.225578   -0.478898
     23         17           0        4.328509    1.871308    1.192711
     24          1           0        1.931884    2.265609   -0.855215
     25          1           0        3.056190    0.031586   -1.752949
     26          1           0        4.218716    2.079184   -1.158611
     27          1           0        5.105657    0.625627   -0.667486
     28          6           0        4.043463   -1.518361    0.349979
     29          1           0        4.758588   -0.957165    0.951801
     30          1           0        4.478980   -1.758304   -0.626323
     31          1           0        3.807022   -2.439111    0.884280
 ---------------------------------------------------------------------

 SCF Done:  E(RM062X) =  -2530.98010485     A.U. after    1 cycles

 The electronic state is 1-A.
 Alpha  occ. eigenvalues -- -102.69859-102.66869 -90.18991 -90.18596 -19.66954
 Alpha  occ. eigenvalues --  -19.66642 -19.66494 -19.66424 -14.82373 -14.81415
 Alpha  occ. eigenvalues --  -14.80618 -10.65941 -10.65814 -10.65272 -10.61961
 Alpha  occ. eigenvalues --  -10.61245 -10.61091 -10.60950 -10.58785 -10.58599
 Alpha  occ. eigenvalues --   -9.84505  -9.81542  -8.49887  -8.49700  -7.56915
 Alpha  occ. eigenvalues --   -7.56245  -7.56211  -7.53937  -7.53284  -7.53278
 Alpha  occ. eigenvalues --   -6.42087  -6.42078  -6.41977  -6.41876  -6.41855
 Alpha  occ. eigenvalues --   -6.41770  -1.26719  -1.26640  -1.15064  -1.14838
 Alpha  occ. eigenvalues --   -1.12045  -1.05651  -1.03770  -1.02445  -0.98002
 Alpha  occ. eigenvalues --   -0.96260  -0.90365  -0.89085  -0.84455  -0.82263
 Alpha  occ. eigenvalues --   -0.77541  -0.75811  -0.73697  -0.72350  -0.67687
 Alpha  occ. eigenvalues --   -0.66055  -0.63860  -0.63385  -0.62097  -0.60885
 Alpha  occ. eigenvalues --   -0.60124  -0.58864  -0.57479  -0.55961  -0.54626
 Alpha  occ. eigenvalues --   -0.54437  -0.53884  -0.53550  -0.52113  -0.51449
 Alpha  occ. eigenvalues --   -0.50460  -0.49040  -0.47851  -0.47512  -0.46954
 Alpha  occ. eigenvalues --   -0.44952  -0.44537  -0.43801  -0.42725  -0.42429
 Alpha  occ. eigenvalues --   -0.41672  -0.41517  -0.41178  -0.40524  -0.40037
 Alpha  occ. eigenvalues --   -0.39105  -0.38300  -0.37349  -0.37102  -0.34977
 Alpha  occ. eigenvalues --   -0.33447  -0.28888
 Alpha virt. eigenvalues --   -0.02858  -0.01745   0.00570   0.01803   0.02168
 Alpha virt. eigenvalues --    0.02532   0.02777   0.03399   0.03991   0.04093
 Alpha virt. eigenvalues --    0.04691   0.04984   0.05720   0.05879   0.06559

 Mulliken charges:
               1
     1  C   -2.507511
     2  C    1.331930
     3  Cl   0.255410
     4  C   -1.625392
     5  H    0.299293
     6  C    0.971681
     7  C    0.619256
     8  S    1.741937
     9  C   -0.541702
    10  H    0.322908
    11  S    1.490865
    12  O   -0.516794
    13  O   -0.651051
    14  N   -0.964285
    15  H    0.494477
    16  H    0.509227
    17  N   -0.528775
    18  C   -0.088255
    19  N   -0.534975
    20  O   -0.614755
    21  O   -0.494645
    22  C   -0.814813
    23  Cl   0.038160
    24  H    0.533571
    25  H    0.325828
    26  H    0.328130
    27  H    0.332807
    28  C   -0.564173
    29  H    0.280367
    30  H    0.295667
    31  H    0.275610
 Sum of Mulliken charges =  -0.00000

 Dipole moment (field-independent basis, Debye):
    X=             10.2453    Y=             11.4191    Z=              0.4409  Tot=             15.3478
 Quadrupole moment (field-independent basis, Debye-Ang):
   XX=           -149.1271   YY=           -156.5276   ZZ=           -146.7378
   XY=            -10.1673   XZ=            -28.9610   YZ=             -7.4249

  Exact polarizability:     359.215      -3.772     284.770     -14.521      -8.691     212.898
 Approx polarizability:     285.344      -2.641     254.024      -8.736      -8.038     199.798

                      1                      2                      3
                      A                      A                      A
 Frequencies --     15.2276                41.6203                66.1921
 Red. masses --     11.0467                 9.1507                 7.5612
 Frc consts  --      0.0015                 0.0093                 0.0195
 IR Inten    --      3.8155                 8.5051                 1.4814

                      4                      5                      6
                      A                      A                      A
 Frequencies --     69.6737                92.7727               109.7807
 Red. masses --      7.0506                10.8709                 5.9172
 Frc consts  --      0.0202                 0.0551                 0.0420
 IR Inten    --      6.5270                10.5611                 5.1492

                      7                      8                      9
                      A                      A                      A
 Frequencies --    125.3224               156.4873               176.8584
 Red. masses --      8.8309                 5.7905                10.2560
 Frc consts  --      0.0817                 0.0835                 0.1890
 IR Inten    --      3.2741                 7.2458                 5.9298

                     10                     11                     12
                      A                      A                      A
 Frequencies --    191.5407               198.8967               214.6789
 Red. masses --     10.4013                 8.3356                 7.2489
 Frc consts  --      0.2248                 0.1943                 0.1968
 IR Inten    --      8.0520                 2.3819                 8.7449

                     13                     14                     15
                      A                      A                      A
 Frequencies --    240.0877               247.2872               274.1715
 Red. masses --      5.8719                 9.4630                 1.1663
 Frc consts  --      0.1994                 0.3409                 0.0517
 IR Inten    --      2.2234                 7.0662                 2.3012

                     16                     17                     18
                      A                      A                      A
 Frequencies --    295.8111               305.6780               321.2418
 Red. masses --      3.6900                 4.3081                 3.0659
 Frc consts  --      0.1902                 0.2372                 0.1864
 IR Inten    --     25.2715                21.6651                42.1112

                     19                     20                     21
                      A                      A                      A
 Frequencies --    347.4233               358.4336               381.1073
 Red. masses --      2.6125                 2.6760                 1.6124
 Frc consts  --      0.1858                 0.2026                 0.1380
 IR Inten    --     26.1213                14.5809               145.8890

                     22                     23                     24
                      A                      A                      A
 Frequencies --    392.2368               403.3551               443.0542
 Red. masses --      2.8729                 3.9968                 3.6232
 Frc consts  --      0.2604                 0.3831                 0.4190
 IR Inten    --     23.0189                31.6118                10.4169

                     25                     26                     27
                      A                      A                      A
 Frequencies --    448.8585               476.1339               485.7521
 Red. masses --      2.5982                 4.9440                 7.5008
 Frc consts  --      0.3084                 0.6604                 1.0428
 IR Inten    --     50.7162                14.1851                 4.2262

                     28                     29                     30
                      A                      A                      A
 Frequencies --    498.0276               505.7510               526.5229
 Red. masses --      5.6987                10.4677                 9.2413
 Frc consts  --      0.8328                 1.5775                 1.5094
 IR Inten    --     76.1089                37.3087               138.7207

                     31                     32                     33
                      A                      A                      A
 Frequencies --    551.1733               595.7067               614.6575
 Red. masses --      7.5731                 6.0967                 7.3061
 Frc consts  --      1.3555                 1.2747                 1.6263
 IR Inten    --    124.0164                37.9956                10.2049

                     34                     35                     36
                      A                      A                      A
 Frequencies --    652.1379               679.7437               689.4193
 Red. masses --      8.9808                 5.2189                 5.5059
 Frc consts  --      2.2503                 1.4208                 1.5419
 IR Inten    --     48.5637                32.0508               151.6726

                     37                     38                     39
                      A                      A                      A
 Frequencies --    712.6979               718.0714               722.7243
 Red. masses --      4.5327                 3.9753                 2.8256
 Frc consts  --      1.3565                 1.2077                 0.8696
 IR Inten    --    258.2783               105.0559               506.7849

                     40                     41                     42
                      A                      A                      A
 Frequencies --    797.9876               812.8387               875.9217
 Red. masses --      5.8737                 4.7511                 1.5386
 Frc consts  --      2.2037                 1.8495                 0.6955
 IR Inten    --     75.6652               119.6916                52.0718

                     43                     44                     45
                      A                      A                      A
 Frequencies --    895.3465               919.7393               925.4991
 Red. masses --      2.7343                 2.8200                 2.4134
 Frc consts  --      1.2914                 1.4055                 1.2179
 IR Inten    --     33.2757                57.4373                61.9828

                     46                     47                     48
                      A                      A                      A
 Frequencies --    940.9782               983.5928              1079.0934
 Red. masses --      1.4000                 4.1038                 2.4072
 Frc consts  --      0.7304                 2.3392                 1.6515
 IR Inten    --     13.7456               267.7683                41.1186

                     49                     50                     51
                      A                      A                      A
 Frequencies --   1087.8176              1127.5927              1130.6397
 Red. masses --      5.9241                 1.3834                 5.2933
 Frc consts  --      4.1303                 1.0363                 3.9868
 IR Inten    --    235.4981                38.0280               166.8650

                     52                     53                     54
                      A                      A                      A
 Frequencies --   1139.9819              1142.9758              1154.9007
 Red. masses --      3.5754                 2.5981                 1.8804
 Frc consts  --      2.7376                 1.9998                 1.4777
 IR Inten    --     75.3193               251.5195                92.3308

                     55                     56                     57
                      A                      A                      A
 Frequencies --   1160.4608              1172.6899              1237.0970
 Red. masses --      1.5948                 4.1684                 1.7691
 Frc consts  --      1.2654                 3.3775                 1.5952
 IR Inten    --    144.3856               487.5076                35.6152

                     58                     59                     60
                      A                      A                      A
 Frequencies --   1262.9781              1268.7182              1281.8646
 Red. masses --      1.3560                13.9533                 1.3315
 Frc consts  --      1.2744                13.2330                 1.2890
 IR Inten    --     89.3681               492.4611                83.3762

                     61                     62                     63
                      A                      A                      A
 Frequencies --   1311.7205              1330.1204              1341.4250
 Red. masses --     10.3821                 2.8323                 1.8189
 Frc consts  --     10.5249                 2.9523                 1.9284
 IR Inten    --    506.4875                79.4919                91.9692

                     64                     65                     66
                      A                      A                      A
 Frequencies --   1367.4717              1387.9595              1398.3715
 Red. masses --      2.0096                 1.5086                 1.7587
 Frc consts  --      2.2141                 1.7123                 2.0263
 IR Inten    --     80.0861               182.4932                12.0239

                     67                     68                     69
                      A                      A                      A
 Frequencies --   1446.0123              1473.6077              1495.8616
 Red. masses --      2.5790                 1.1931                 1.1239
 Frc consts  --      3.1772                 1.5265                 1.4817
 IR Inten    --      1.9430                 1.8766                53.5611

                     70                     71                     72
                      A                      A                      A
 Frequencies --   1509.2030              1512.5679              1525.0579
 Red. masses --      1.2177                 1.7121                 1.1043
 Frc consts  --      1.6341                 2.3079                 1.5132
 IR Inten    --     22.1663                31.7421                35.5076

                     73                     74                     75
                      A                      A                      A
 Frequencies --   1587.6197              1594.6775              1633.1822
 Red. masses --      3.9824                 1.1002                 4.3213
 Frc consts  --      5.9141                 1.6485                 6.7911
 IR Inten    --    510.4773               116.7571               119.3979

                     76                     77                     78
                      A                      A                      A
 Frequencies --   1670.0237              3036.0412              3094.2561
 Red. masses --      6.3731                 1.0823                 1.0405
 Frc consts  --     10.4724                 5.8779                 5.8695
 IR Inten    --   1040.5146                47.0607                35.8875

                     79                     80                     81
                      A                      A                      A
 Frequencies --   3165.9270              3190.8487              3216.1363
 Red. masses --      1.0616                 1.0984                 1.1056
 Frc consts  --      6.2695                 6.5889                 6.7379
 IR Inten    --      4.4544                 6.0907                 0.5050

                     82                     83                     84
                      A                      A                      A
 Frequencies --   3231.8383              3246.4647              3249.1884
 Red. masses --      1.1088                 1.0923                 1.0940
 Frc consts  --      6.8235                 6.7832                 6.8047
 IR Inten    --      1.4024                33.8565                 2.4877

                     85                     86                     87
                      A                      A                      A
 Frequencies --   3500.3416              3603.1970              3604.8305
 Red. masses --      1.0486                 1.0795                 1.0990
 Frc consts  --      7.5696                 8.2574                 8.4143
 IR Inten    --    141.4364               271.6138               154.0802

 - Thermochemistry -
 -------------------
 Temperature   298.150 Kelvin.  Pressure   1.00000 Atm.
 Atom     1 has atomic number  6 and mass  12.00000

 Molecular mass:   358.95681 amu.
 Principal axes and moments of inertia in atomic units:
                           1         2         3
     Eigenvalues --  3937.94145********************
           X            0.99994  -0.00333  -0.01017
           Y            0.00320   0.99991  -0.01317
           Z            0.01022   0.01313   0.99986
 This molecule is an asymmetric top.
 Rotational symmetry number  1.
 Warning -- assumption of classical behavior for rotation
           may cause significant error
 Rotational temperatures (Kelvin)      0.02199     0.00683     0.00569
 Rotational constants (GHZ):           0.45830     0.14221     0.11864
 Zero-point vibrational energy     577012.7 (Joules/Mol)
                                  137.90934 (Kcal/Mol)
 Warning -- explicit consideration of  33 degrees of freedom as
           vibrations may cause significant error
 Vibrational temperatures:     21.91    59.88    95.24   100.24   133.48
          (Kelvin)            157.95   180.31   225.15   254.46   275.58
                              286.17   308.88   345.43   355.79   394.47
                              425.61   439.80   462.20   499.86   515.71
                              548.33   564.34   580.34   637.46   645.81
                              685.05   698.89   716.55   727.66   757.55
                              793.02   857.09   884.35   938.28   978.00
                              991.92  1025.41  1033.14  1039.84  1148.13
                             1169.49  1260.26  1288.20  1323.30  1331.59
                             1353.86  1415.17  1552.57  1565.13  1622.35
                             1626.74  1640.18  1644.49  1661.64  1669.64
                             1687.24  1779.91  1817.14  1825.40  1844.32
                             1887.27  1913.75  1930.01  1967.49  1996.96
                             2011.94  2080.49  2120.19  2152.21  2171.41
                             2176.25  2194.22  2284.23  2294.39  2349.78
                             2402.79  4368.19  4451.94  4555.06  4590.92
                             4627.30  4649.89  4670.94  4674.86  5036.21
                             5184.20  5186.55

 Zero-point correction=                           0.219773 (Hartree/Particle)
 Thermal correction to Energy=                    0.239018
 Thermal correction to Enthalpy=                  0.239962
 Thermal correction to Gibbs Free Energy=         0.170928
 Sum of electronic and zero-point Energies=          -2530.760332
 Sum of electronic and thermal Energies=             -2530.741087
 Sum of electronic and thermal Enthalpies=           -2530.740143
 Sum of electronic and thermal Free Energies=        -2530.809177

                     E (Thermal)             CV                S
                      KCal/Mol        Cal/Mol-Kelvin    Cal/Mol-Kelvin
 Total                  149.986             72.486            145.295
 Electronic               0.000              0.000              0.000
 Translational            0.889              2.981             43.528
 Rotational               0.889              2.981             34.985
 Vibrational            148.209             66.525             66.783
 Vibration     1          0.593              1.986              7.176
 Vibration     2          0.594              1.981              5.180
 Vibration     3          0.598              1.970              4.264
 Vibration     4          0.598              1.969              4.163
 Vibration     5          0.602              1.954              3.601
 Vibration     6          0.606              1.941              3.273
 Vibration     7          0.610              1.928              3.017
 Vibration     8          0.620              1.895              2.592
 Vibration     9          0.628              1.871              2.361
 Vibration    10          0.634              1.852              2.213
 Vibration    11          0.637              1.841              2.143
 Vibration    12          0.645              1.819              2.004
 Vibration    13          0.657              1.779              1.802
 Vibration    14          0.661              1.767              1.750
 Vibration    15          0.676              1.721              1.570
 Vibration    16          0.690              1.682              1.440
 Vibration    17          0.696              1.663              1.386
 Vibration    18          0.707              1.633              1.304
 Vibration    19          0.725              1.581              1.178
 Vibration    20          0.733              1.558              1.129
 Vibration    21          0.751              1.510              1.035
 Vibration    22          0.760              1.487              0.992
 Vibration    23          0.769              1.463              0.950
 Vibration    24          0.803              1.376              0.817
 Vibration    25          0.808              1.363              0.799
 Vibration    26          0.833              1.303              0.721
 Vibration    27          0.842              1.282              0.695
 Vibration    28          0.854              1.254              0.663
 Vibration    29          0.861              1.237              0.644
 Vibration    30          0.881              1.191              0.595
 Vibration    31          0.906              1.137              0.542
 Vibration    32          0.953              1.041              0.457
 Vibration    33          0.974              1.001              0.425

                           ! Non-Optimized Parameters !
 Normal termination of Gaussian 16 at Wed Jun 29 17:43:09 2022.
