 Gaussian 16, Revision C.01,
 Gaussian 16:  ES64L-G16RevC.01  3-Jul-2019

 -----------------------------------------------------
 #m062X/gen 6D OPT Freq=noraman SCRF=(SMD,Solvent=h2o)
 -----------------------------------------------------

 ------------------
 HA.29.smd.a1c2.smd
 ------------------
 Symbolic Z-matrix:
 Charge =  0 Multiplicity = 1

 SCF Done:  E(RM062X) =  -1866.89180171     A.U. after   19 cycles
 SCF Done:  E(RM062X) =  -1866.97257043     A.U. after   16 cycles
 SCF Done:  E(RM062X) =  -1867.07027524     A.U. after   16 cycles
 SCF Done:  E(RM062X) =  -1867.10336981     A.U. after   15 cycles
 SCF Done:  E(RM062X) =  -1867.13897151     A.U. after   15 cycles
 SCF Done:  E(RM062X) =  -1867.17055457     A.U. after   15 cycles
 SCF Done:  E(RM062X) =  -1867.18500743     A.U. after   14 cycles
 SCF Done:  E(RM062X) =  -1867.19974357     A.U. after   14 cycles
 SCF Done:  E(RM062X) =  -1867.20475671     A.U. after   14 cycles
 SCF Done:  E(RM062X) =  -1867.20709283     A.U. after   13 cycles
 SCF Done:  E(RM062X) =  -1867.20981709     A.U. after   12 cycles
 SCF Done:  E(RM062X) =  -1867.20980687     A.U. after   12 cycles
 SCF Done:  E(RM062X) =  -1867.20981725     A.U. after   12 cycles
 SCF Done:  E(RM062X) =  -1867.20980692     A.U. after   12 cycles
 SCF Done:  E(RM062X) =  -1867.20981747     A.U. after   12 cycles
 SCF Done:  E(RM062X) =  -1867.20981768     A.U. after    9 cycles
 SCF Done:  E(RM062X) =  -1867.20981781     A.U. after    9 cycles
 SCF Done:  E(RM062X) =  -1867.20981791     A.U. after    8 cycles
 SCF Done:  E(RM062X) =  -1867.20981797     A.U. after    8 cycles
 Optimization completed.
    -- Stationary point found.
 Normal termination of Gaussian 16 at Wed Jun 29 19:33:38 2022.

 ------------------------------------------------------------------
 #N Geom=AllCheck Guess=TCheck SCRF=Check GenChk RM062X/ChkBas Freq
 ------------------------------------------------------------------

 Structure from the checkpoint file:  "/jobfs/48773902.gadi-pbs/Gau-2409412.chk"
 ------------------
 HA.29.smd.a1c2.smd
 ------------------
 Charge =  0 Multiplicity = 1

                         Standard orientation:
 ---------------------------------------------------------------------
 Center     Atomic      Atomic             Coordinates (Angstroms)
 Number     Number       Type             X           Y           Z
 ---------------------------------------------------------------------
      1          6           0       -2.569385   -0.227619   -0.054844
      2          6           0       -2.743283    1.169045   -0.055041
      3         17           0       -4.330942    1.880789    0.001998
      4          6           0       -1.662969    2.025335   -0.107851
      5          1           0       -1.810401    3.100979   -0.108249
      6          6           0       -0.359626    1.497440   -0.152342
      7          6           0       -0.180848    0.100837   -0.169962
      8          6           0        1.182045   -0.462698   -0.337880
      9          6           0       -1.280883   -0.745013   -0.126443
     10          1           0       -1.127391   -1.818918   -0.151468
     11         16           0       -3.921106   -1.378797    0.037372
     12          8           0       -3.333646   -2.714399   -0.046338
     13          8           0       -4.757909   -1.043720    1.188577
     14          7           0       -4.880483   -1.219486   -1.293218
     15          1           0       -4.361507   -1.360292   -2.162245
     16          1           0       -5.393325   -0.336889   -1.308781
     17          7           0        0.741135    2.302140   -0.247469
     18          6           0        1.992097    1.790164    0.300064
     19          7           0        2.203890    0.423088   -0.211239
     20          6           0        2.031995    1.835224    1.821694
     21          1           0        0.584259    3.285373   -0.040725
     22          1           0        2.796022    2.403819   -0.108545
     23          1           0        2.990726    1.451117    2.185193
     24          1           0        1.221885    1.234788    2.249292
     25          8           0        1.361493   -1.651311   -0.632187
     26          6           0        3.565915   -0.023915   -0.298814
     27          6           0        4.087097   -0.944384    0.622999
     28          6           0        3.266303   -1.554847    1.727154
     29          6           0        5.434815   -1.302841    0.482949
     30          1           0        5.858051   -2.013443    1.189089
     31          6           0        6.235872   -0.766701   -0.521342
     32          1           0        7.277666   -1.064004   -0.598597
     33          6           0        5.700253    0.156030   -1.421091
     34          1           0        6.315155    0.583021   -2.207406
     35          6           0        4.363841    0.523609   -1.306542
     36          1           0        3.924192    1.238241   -1.997682
     37          1           0        1.923831    2.871631    2.155607
     38          1           0        3.885846   -1.707288    2.615436
     39          1           0        2.875920   -2.531398    1.419303
     40          1           0        2.412046   -0.932133    2.004685
 ---------------------------------------------------------------------

 SCF Done:  E(RM062X) =  -1867.20981797     A.U. after    1 cycles

 The electronic state is 1-A.
 Alpha  occ. eigenvalues -- -102.69585 -90.18709 -19.66275 -19.66227 -19.63349
 Alpha  occ. eigenvalues --  -14.81352 -14.80448 -14.79739 -10.67857 -10.65381
 Alpha  occ. eigenvalues --  -10.63748 -10.63244 -10.60670 -10.59897 -10.59375
 Alpha  occ. eigenvalues --  -10.58130 -10.58029 -10.57073 -10.55965 -10.55646
 Alpha  occ. eigenvalues --  -10.55534 -10.55418 -10.53887 -10.53775  -9.84232
 Alpha  occ. eigenvalues --   -8.49618  -7.56637  -7.55974  -7.55942  -6.41818
 Alpha  occ. eigenvalues --   -6.41810  -6.41700  -1.26372  -1.18186  -1.14795
 Alpha  occ. eigenvalues --   -1.10605  -1.05019  -1.03521  -1.01804  -0.96353
 Alpha  occ. eigenvalues --   -0.96151  -0.89601  -0.87871  -0.87286  -0.85015
 Alpha  occ. eigenvalues --   -0.83700  -0.78420  -0.77233  -0.74737  -0.73761
 Alpha  occ. eigenvalues --   -0.71761  -0.69509  -0.67908  -0.65917  -0.63410
 Alpha  occ. eigenvalues --   -0.63003  -0.61823  -0.60841  -0.59175  -0.57370
 Alpha  occ. eigenvalues --   -0.56588  -0.55680  -0.54964  -0.54276  -0.53849
 Alpha  occ. eigenvalues --   -0.52933  -0.52486  -0.51690  -0.50094  -0.49676
 Alpha  occ. eigenvalues --   -0.49412  -0.48697  -0.48232  -0.47672  -0.46174
 Alpha  occ. eigenvalues --   -0.45037  -0.44314  -0.43974  -0.43663  -0.43305
 Alpha  occ. eigenvalues --   -0.42724  -0.42312  -0.41363  -0.41088  -0.40872
 Alpha  occ. eigenvalues --   -0.40630  -0.39822  -0.38771  -0.37726  -0.35664
 Alpha  occ. eigenvalues --   -0.34210  -0.32680  -0.30662  -0.30094  -0.27968
 Alpha virt. eigenvalues --   -0.03412  -0.01125   0.00761   0.01157   0.01673
 Alpha virt. eigenvalues --    0.02013   0.02259   0.02933   0.02992   0.03799
 Alpha virt. eigenvalues --    0.04188   0.04201   0.04788   0.05180   0.05459

 Mulliken charges:
               1
     1  C   -2.266604
     2  C    1.213082
     3  Cl   0.231119
     4  C   -0.981583
     5  H    0.290365
     6  C   -0.047091
     7  C    1.147612
     8  C    0.721686
     9  C   -0.363983
    10  H    0.308191
    11  S    1.395980
    12  O   -0.662152
    13  O   -0.541789
    14  N   -0.989380
    15  H    0.507097
    16  H    0.492447
    17  N   -0.442286
    18  C   -0.089659
    19  N   -0.215929
    20  C   -0.689311
    21  H    0.512366
    22  H    0.281852
    23  H    0.264982
    24  H    0.265154
    25  O   -0.610123
    26  C   -0.466768
    27  C    0.354883
    28  C   -0.761232
    29  C   -0.336616
    30  H    0.245055
    31  C   -0.161385
    32  H    0.248405
    33  C   -0.457387
    34  H    0.251315
    35  C    0.045090
    36  H    0.264324
    37  H    0.254520
    38  H    0.246250
    39  H    0.268837
    40  H    0.272666
 Sum of Mulliken charges =  -0.00000

 Dipole moment (field-independent basis, Debye):
    X=              7.0488    Y=             13.0619    Z=             -1.7836  Tot=             14.9493
 Quadrupole moment (field-independent basis, Debye-Ang):
   XX=           -157.0149   YY=           -154.7493   ZZ=           -150.0558
   XY=            -12.1790   XZ=             27.1599   YZ=             -0.8898

  Exact polarizability:     460.288       4.572     352.952     -13.188     -18.408     262.481
 Approx polarizability:     366.473      -2.303     309.971     -13.706     -17.195     234.456

                      1                      2                      3
                      A                      A                      A
 Frequencies --     26.5371                34.2937                58.5063
 Red. masses --      5.4336                 5.9796                 5.4701
 Frc consts  --      0.0023                 0.0041                 0.0110
 IR Inten    --      2.8891                 3.7252                 0.6980

                      4                      5                      6
                      A                      A                      A
 Frequencies --     65.8228                81.6520                90.2983
 Red. masses --      6.2634                 3.8848                 4.5562
 Frc consts  --      0.0160                 0.0153                 0.0219
 IR Inten    --     10.1692                 5.6323                 2.0161

                      7                      8                      9
                      A                      A                      A
 Frequencies --    125.2377               133.3159               139.0598
 Red. masses --      5.4893                 5.6703                 1.8239
 Frc consts  --      0.0507                 0.0594                 0.0208
 IR Inten    --      7.5401                 5.6852                 0.2194

                     10                     11                     12
                      A                      A                      A
 Frequencies --    161.8182               182.8990               199.6710
 Red. masses --      2.4050                 5.9836                 5.6262
 Frc consts  --      0.0371                 0.1179                 0.1322
 IR Inten    --      5.5182                 2.7681                 0.2690

                     13                     14                     15
                      A                      A                      A
 Frequencies --    204.6504               210.5899               237.7657
 Red. masses --      3.9300                 4.7238                 3.0689
 Frc consts  --      0.0970                 0.1234                 0.1022
 IR Inten    --     20.8024                 1.9692                 8.9445

                     16                     17                     18
                      A                      A                      A
 Frequencies --    258.0610               280.1331               286.8982
 Red. masses --      2.6266                 5.2738                 3.5440
 Frc consts  --      0.1031                 0.2438                 0.1719
 IR Inten    --     34.0309                 2.7564                16.4419

                     19                     20                     21
                      A                      A                      A
 Frequencies --    299.7774               309.6179               329.2782
 Red. masses --      2.8227                 1.2983                 3.0335
 Frc consts  --      0.1495                 0.0733                 0.1938
 IR Inten    --      3.2286                 1.1941                10.5286

                     22                     23                     24
                      A                      A                      A
 Frequencies --    351.6049               388.3427               415.8503
 Red. masses --      5.2589                 6.2922                 3.5352
 Frc consts  --      0.3831                 0.5591                 0.3602
 IR Inten    --      0.5376                 7.1151                 9.2881

                     25                     26                     27
                      A                      A                      A
 Frequencies --    434.1701               440.8169               446.7664
 Red. masses --      3.2514                 3.3507                 3.3194
 Frc consts  --      0.3611                 0.3836                 0.3904
 IR Inten    --     26.8434                23.5154                11.1957

                     28                     29                     30
                      A                      A                      A
 Frequencies --    469.2995               492.7915               507.4491
 Red. masses --      2.9218                 8.0650                 6.1125
 Frc consts  --      0.3791                 1.1539                 0.9274
 IR Inten    --     14.7854                81.4273                17.2612

                     31                     32                     33
                      A                      A                      A
 Frequencies --    521.6001               531.0323               552.9280
 Red. masses --      4.1535                 4.7014                 3.9920
 Frc consts  --      0.6658                 0.7811                 0.7191
 IR Inten    --     24.9487               178.2798               200.2012

                     34                     35                     36
                      A                      A                      A
 Frequencies --    558.0068               569.4559               576.6153
 Red. masses --      5.2340                 4.2866                 3.5414
 Frc consts  --      0.9602                 0.8190                 0.6937
 IR Inten    --     50.0432                45.9996                24.8887

                     37                     38                     39
                      A                      A                      A
 Frequencies --    616.4630               637.1341               646.4539
 Red. masses --      2.4928                 5.3535                 6.9515
 Frc consts  --      0.5582                 1.2804                 1.7116
 IR Inten    --    128.5986                77.3665                44.3206

                     40                     41                     42
                      A                      A                      A
 Frequencies --    668.7877               699.9321               718.5261
 Red. masses --      4.4838                 4.4133                 2.7692
 Frc consts  --      1.1816                 1.2739                 0.8423
 IR Inten    --     57.8340                 3.0333               636.1310

                     43                     44                     45
                      A                      A                      A
 Frequencies --    726.9407               742.2222               772.2869
 Red. masses --      4.4608                 2.4744                 3.4441
 Frc consts  --      1.3889                 0.8031                 1.2103
 IR Inten    --    129.0940                12.4407                36.6047

                     46                     47                     48
                      A                      A                      A
 Frequencies --    787.5772               793.9154               817.6707
 Red. masses --      1.6162                 6.3483                 4.2113
 Frc consts  --      0.5907                 2.3575                 1.6589
 IR Inten    --    100.8917                43.1488                 5.5666

                     49                     50                     51
                      A                      A                      A
 Frequencies --    882.8921               885.5386               895.7156
 Red. masses --      1.5602                 2.7504                 1.8209
 Frc consts  --      0.7165                 1.2707                 0.8607
 IR Inten    --     39.3105                58.4815                10.1429

                     52                     53                     54
                      A                      A                      A
 Frequencies --    901.6935               954.0086               961.2289
 Red. masses --      1.9540                 2.7412                 1.4272
 Frc consts  --      0.9360                 1.4699                 0.7769
 IR Inten    --      4.8853                52.3016                15.6859

                     55                     56                     57
                      A                      A                      A
 Frequencies --    971.7249               987.4947              1011.2023
 Red. masses --      4.9661                 1.4015                 1.5441
 Frc consts  --      2.7628                 0.8052                 0.9302
 IR Inten    --    164.1566                 6.5865                 2.4153

                     58                     59                     60
                      A                      A                      A
 Frequencies --   1025.1219              1036.6497              1064.1402
 Red. masses --      1.3126                 2.0098                 1.5490
 Frc consts  --      0.8127                 1.2725                 1.0334
 IR Inten    --      0.2362                33.4101                13.9849

                     61                     62                     63
                      A                      A                      A
 Frequencies --   1081.9519              1093.4925              1123.4562
 Red. masses --      2.0194                 2.8659                 1.3113
 Frc consts  --      1.3928                 2.0190                 0.9751
 IR Inten    --      7.2282                28.0644                15.4539

                     64                     65                     66
                      A                      A                      A
 Frequencies --   1134.3448              1138.1027              1144.3690
 Red. masses --      5.7346                 2.1796                 1.9322
 Frc consts  --      4.3475                 1.6634                 1.4909
 IR Inten    --    298.2754                85.4678                45.3865

                     67                     68                     69
                      A                      A                      A
 Frequencies --   1150.5728              1165.3138              1173.4376
 Red. masses --      1.9118                 2.4746                 1.0958
 Frc consts  --      1.4912                 1.9799                 0.8890
 IR Inten    --      6.6964               285.8154                 0.5782

                     70                     71                     72
                      A                      A                      A
 Frequencies --   1221.7672              1244.5141              1269.1965
 Red. masses --      2.8574                 3.8384                 1.3146
 Frc consts  --      2.5131                 3.5027                 1.2477
 IR Inten    --     32.3536               125.4456                81.5955

                     73                     74                     75
                      A                      A                      A
 Frequencies --   1282.4283              1306.7605              1309.8834
 Red. masses --      3.7163                 4.9851                 2.1748
 Frc consts  --      3.6010                 5.0155                 2.1985
 IR Inten    --     46.7683               293.9277               240.5289

                     76                     77                     78
                      A                      A                      A
 Frequencies --   1316.4994              1334.7292              1342.9672
 Red. masses --      2.3833                 4.6777                 1.9795
 Frc consts  --      2.4337                 4.9099                 2.1035
 IR Inten    --     64.5879                17.0977                49.3298

                     79                     80                     81
                      A                      A                      A
 Frequencies --   1364.0699              1398.1947              1421.2419
 Red. masses --      4.3651                 1.4544                 3.0207
 Frc consts  --      4.7854                 1.6752                 3.5950
 IR Inten    --    185.7108                 6.1890               105.8142

                     82                     83                     84
                      A                      A                      A
 Frequencies --   1422.5668              1426.4075              1474.6509
 Red. masses --      1.2613                 1.3103                 1.3683
 Frc consts  --      1.5039                 1.5708                 1.7531
 IR Inten    --      0.7947                35.0780               102.0496

                     85                     86                     87
                      A                      A                      A
 Frequencies --   1477.2186              1495.7013              1499.4532
 Red. masses --      1.1799                 1.1616                 1.1430
 Frc consts  --      1.5169                 1.5311                 1.5141
 IR Inten    --      8.3943                36.6643                17.1029

                     88                     89                     90
                      A                      A                      A
 Frequencies --   1503.0359              1508.0969              1525.2613
 Red. masses --      1.3232                 2.1355                 3.1523
 Frc consts  --      1.7613                 2.8615                 4.3208
 IR Inten    --     68.0696               178.6195               137.5547

                     91                     92                     93
                      A                      A                      A
 Frequencies --   1545.1902              1554.1492              1590.4586
 Red. masses --      2.7946                 3.4087                 1.1014
 Frc consts  --      3.9313                 4.8510                 1.6415
 IR Inten    --    114.0969               544.1809               118.7190

                     94                     95                     96
                      A                      A                      A
 Frequencies --   1637.0655              1655.4099              1672.8809
 Red. masses --      7.4164                 6.6810                 6.9774
 Frc consts  --     11.7104                10.7871                11.5046
 IR Inten    --     10.3924               101.1040               751.8449

                     97                     98                     99
                      A                      A                      A
 Frequencies --   1682.7620              1692.9901              3081.8911
 Red. masses --      7.6215                 8.7168                 1.0353
 Frc consts  --     12.7156                14.7202                 5.7938
 IR Inten    --    421.1452               801.3782                11.0505

                    100                    101                    102
                      A                      A                      A
 Frequencies --   3086.7205              3151.8750              3157.1850
 Red. masses --      1.0392                 1.0988                 1.0966
 Frc consts  --      5.8335                 6.4315                 6.4402
 IR Inten    --     21.7773                16.3270                 0.7175

                    103                    104                    105
                      A                      A                      A
 Frequencies --   3166.1874              3173.8070              3176.8270
 Red. masses --      1.1031                 1.0967                 1.1024
 Frc consts  --      6.5152                 6.5089                 6.5553
 IR Inten    --     24.2251                40.2659                17.1679

                    106                    107                    108
                      A                      A                      A
 Frequencies --   3215.9589              3225.0094              3233.9598
 Red. masses --      1.0892                 1.0901                 1.0933
 Frc consts  --      6.6370                 6.6803                 6.7370
 IR Inten    --      7.7108                 1.2936                14.7560

                    109                    110                    111
                      A                      A                      A
 Frequencies --   3245.2661              3246.5344              3261.9548
 Red. masses --      1.0939                 1.0983                 1.0913
 Frc consts  --      6.7879                 6.8202                 6.8415
 IR Inten    --      4.3852                13.8869                17.0295

                    112                    113                    114
                      A                      A                      A
 Frequencies --   3497.8866              3586.0710              3600.6485
 Red. masses --      1.0484                 1.0777                 1.0991
 Frc consts  --      7.5577                 8.1653                 8.3955
 IR Inten    --    137.9034               178.7288               152.6103

 - Thermochemistry -
 -------------------
 Temperature   298.150 Kelvin.  Pressure   1.00000 Atm.
 Atom     1 has atomic number  6 and mass  12.00000

 Molecular mass:   365.06009 amu.
 Principal axes and moments of inertia in atomic units:
                           1         2         3
     Eigenvalues --  3600.09126********************
           X            0.99998   0.00140   0.00683
           Y           -0.00139   1.00000  -0.00058
           Z           -0.00684   0.00057   0.99998
 This molecule is an asymmetric top.
 Rotational symmetry number  1.
 Warning -- assumption of classical behavior for rotation
           may cause significant error
 Rotational temperatures (Kelvin)      0.02406     0.00499     0.00449
 Rotational constants (GHZ):           0.50130     0.10388     0.09350
 Zero-point vibrational energy     811464.7 (Joules/Mol)
                                  193.94473 (Kcal/Mol)
 Warning -- explicit consideration of  37 degrees of freedom as
           vibrations may cause significant error
 Vibrational temperatures:     38.18    49.34    84.18    94.70   117.48
          (Kelvin)            129.92   180.19   191.81   200.08   232.82
                              263.15   287.28   294.45   302.99   342.09
                              371.29   403.05   412.78   431.31   445.47
                              473.76   505.88   558.74   598.32   624.67
                              634.24   642.80   675.22   709.02   730.11
                              750.47   764.04   795.54   802.85   819.32
                              829.62   886.95   916.69   930.10   962.24
                             1007.05  1033.80  1045.91  1067.89  1111.15
                             1133.15  1142.27  1176.45  1270.28  1274.09
                             1288.73  1297.34  1372.61  1382.99  1398.10
                             1420.78  1454.89  1474.92  1491.51  1531.06
                             1556.69  1573.29  1616.40  1632.07  1637.48
                             1646.49  1655.42  1676.63  1688.31  1757.85
                             1790.58  1826.09  1845.13  1880.14  1884.63
                             1894.15  1920.38  1932.23  1962.59  2011.69
                             2044.85  2046.76  2052.28  2121.69  2125.39
                             2151.98  2157.38  2162.53  2169.82  2194.51
                             2223.18  2236.07  2288.32  2355.37  2381.77
                             2406.90  2421.12  2435.84  4434.15  4441.10
                             4534.85  4542.49  4555.44  4566.40  4570.75
                             4627.05  4640.07  4652.95  4669.21  4671.04
                             4693.23  5032.68  5159.56  5180.53

 Zero-point correction=                           0.309071 (Hartree/Particle)
 Thermal correction to Energy=                    0.330598
 Thermal correction to Enthalpy=                  0.331542
 Thermal correction to Gibbs Free Energy=         0.258366
 Sum of electronic and zero-point Energies=          -1866.900747
 Sum of electronic and thermal Energies=             -1866.879220
 Sum of electronic and thermal Enthalpies=           -1866.878276
 Sum of electronic and thermal Free Energies=        -1866.951452

                     E (Thermal)             CV                S
                      KCal/Mol        Cal/Mol-Kelvin    Cal/Mol-Kelvin
 Total                  207.453             83.713            154.013
 Electronic               0.000              0.000              0.000
 Translational            0.889              2.981             43.578
 Rotational               0.889              2.981             35.444
 Vibrational            205.676             77.752             74.990
 Vibration     1          0.593              1.984              6.073
 Vibration     2          0.594              1.983              5.564
 Vibration     3          0.596              1.974              4.507
 Vibration     4          0.597              1.971              4.275
 Vibration     5          0.600              1.962              3.851
 Vibration     6          0.602              1.956              3.654
 Vibration     7          0.610              1.928              3.018
 Vibration     8          0.613              1.920              2.898
 Vibration     9          0.615              1.914              2.817
 Vibration    10          0.622              1.889              2.528
 Vibration    11          0.630              1.863              2.299
 Vibration    12          0.638              1.840              2.136
 Vibration    13          0.640              1.833              2.091
 Vibration    14          0.643              1.825              2.039
 Vibration    15          0.656              1.783              1.820
 Vibration    16          0.667              1.749              1.675
 Vibration    17          0.680              1.710              1.533
 Vibration    18          0.684              1.698              1.492
 Vibration    19          0.692              1.674              1.418
 Vibration    20          0.699              1.655              1.364
 Vibration    21          0.712              1.617              1.264
 Vibration    22          0.728              1.572              1.159
 Vibration    23          0.757              1.495              1.007
 Vibration    24          0.779              1.436              0.906
 Vibration    25          0.795              1.396              0.845
 Vibration    26          0.801              1.381              0.824
 Vibration    27          0.806              1.368              0.806
 Vibration    28          0.826              1.318              0.740
 Vibration    29          0.848              1.266              0.676
 Vibration    30          0.863              1.233              0.640
 Vibration    31          0.877              1.202              0.606
 Vibration    32          0.886              1.181              0.585
 Vibration    33          0.908              1.133              0.538
 Vibration    34          0.914              1.122              0.528
 Vibration    35          0.926              1.097              0.505
 Vibration    36          0.933              1.082              0.492
 Vibration    37          0.976              0.997              0.422

                           ! Non-Optimized Parameters !
 Normal termination of Gaussian 16 at Wed Jun 29 20:06:25 2022.
