 Gaussian 16, Revision C.01,
 Gaussian 16:  ES64L-G16RevC.01  3-Jul-2019

 -----------------------------------------------------
 #m062X/gen 6D OPT Freq=noraman SCRF=(SMD,Solvent=h2o)
 -----------------------------------------------------

 --------------------
 HA.26.smd.a2c2d2.smd
 --------------------
 Symbolic Z-matrix:
 Charge =  0 Multiplicity = 1

 SCF Done:  E(RM062X) =  -1436.02325047     A.U. after   15 cycles
 SCF Done:  E(RM062X) =  -1436.03085564     A.U. after   14 cycles
 SCF Done:  E(RM062X) =  -1436.03484063     A.U. after   15 cycles
 SCF Done:  E(RM062X) =  -1436.03678861     A.U. after   15 cycles
 SCF Done:  E(RM062X) =  -1436.03817589     A.U. after   14 cycles
 SCF Done:  E(RM062X) =  -1436.03977254     A.U. after   13 cycles
 SCF Done:  E(RM062X) =  -1436.03981831     A.U. after   12 cycles
 SCF Done:  E(RM062X) =  -1436.03996823     A.U. after   12 cycles
 SCF Done:  E(RM062X) =  -1436.04014806     A.U. after   12 cycles
 SCF Done:  E(RM062X) =  -1436.04006960     A.U. after   15 cycles
 SCF Done:  E(RM062X) =  -1436.04182455     A.U. after   11 cycles
 SCF Done:  E(RM062X) =  -1436.04151581     A.U. after   13 cycles
 SCF Done:  E(RM062X) =  -1436.04153180     A.U. after   12 cycles
 SCF Done:  E(RM062X) =  -1436.04182884     A.U. after    5 cycles
 SCF Done:  E(RM062X) =  -1436.04179296     A.U. after   12 cycles
 SCF Done:  E(RM062X) =  -1436.04182706     A.U. after   11 cycles
 SCF Done:  E(RM062X) =  -1436.04182896     A.U. after    9 cycles
 SCF Done:  E(RM062X) =  -1436.04182958     A.U. after    9 cycles
 SCF Done:  E(RM062X) =  -1436.04182965     A.U. after    8 cycles
 Optimization completed.
    -- Stationary point found.
 Normal termination of Gaussian 16 at Sat May 21 01:09:53 2022.

 ------------------------------------------------------------------
 #N Geom=AllCheck Guess=TCheck SCRF=Check GenChk RM062X/ChkBas Freq
 ------------------------------------------------------------------

 Structure from the checkpoint file:  "/jobfs/40783899.gadi-pbs/Gau-1966782.chk"
 --------------------
 HA.26.smd.a2c2d2.smd
 --------------------
 Charge =  0 Multiplicity = 1

                         Standard orientation:
 ---------------------------------------------------------------------
 Center     Atomic      Atomic             Coordinates (Angstroms)
 Number     Number       Type             X           Y           Z
 ---------------------------------------------------------------------
      1          6           0        1.026149    0.181461    0.108295
      2          7           0        0.724073    1.429350    0.065944
      3          7           0       -0.611194    1.580241    0.018153
      4          6           0       -1.365407    0.450155    0.015536
      5          7           0       -2.666777    0.494444   -0.026644
      6         16           0       -0.295807   -0.951317    0.089771
      7         16           0        2.734795   -0.328956    0.101882
      8          8           0        3.491295    0.683283    0.820505
      9          8           0        2.709879   -1.716464    0.546234
     10          7           0        3.260904   -0.326411   -1.444760
     11          1           0        3.270079    0.605738   -1.864798
     12          6           0       -1.191057    2.920635   -0.022471
     13          1           0       -0.364399    3.628115   -0.016503
     14          1           0       -1.824091    3.069151    0.853313
     15          1           0       -1.780208    3.032949   -0.933461
     16          1           0        2.775430   -1.006406   -2.033650
     17          6           0       -3.330619   -0.715006   -0.029127
     18          6           0       -4.824586   -0.614574   -0.087523
     19          8           0       -2.745818   -1.804345    0.013220
     20          1           0       -5.120078   -0.080669   -0.996244
     21          1           0       -5.187082   -0.035119    0.767300
     22          1           0       -5.272231   -1.608576   -0.079196
 ---------------------------------------------------------------------

 SCF Done:  E(RM062X) =  -1436.04182965     A.U. after    1 cycles

 The electronic state is 1-A.
 Alpha  occ. eigenvalues --  -90.20338 -90.00344 -19.67784 -19.67711 -19.64819
 Alpha  occ. eigenvalues --  -14.88603 -14.85838 -14.81505 -14.76996 -10.69535
 Alpha  occ. eigenvalues --  -10.67211 -10.66266 -10.59044 -10.54213  -8.51215
 Alpha  occ. eigenvalues --   -8.34633  -6.43405  -6.43395  -6.43344  -6.26608
 Alpha  occ. eigenvalues --   -6.26384  -6.26095  -1.28100  -1.22410  -1.18431
 Alpha  occ. eigenvalues --   -1.16557  -1.05960  -1.04626  -0.99772  -0.92938
 Alpha  occ. eigenvalues --   -0.84712  -0.83981  -0.79823  -0.74368  -0.69290
 Alpha  occ. eigenvalues --   -0.66864  -0.63098  -0.62125  -0.60234  -0.59447
 Alpha  occ. eigenvalues --   -0.58240  -0.57578  -0.55381  -0.53046  -0.52875
 Alpha  occ. eigenvalues --   -0.50013  -0.49350  -0.47406  -0.46127  -0.45516
 Alpha  occ. eigenvalues --   -0.45319  -0.43903  -0.43191  -0.42438  -0.41789
 Alpha  occ. eigenvalues --   -0.40855  -0.40091  -0.37771  -0.37286  -0.34396
 Alpha  occ. eigenvalues --   -0.30644
 Alpha virt. eigenvalues --   -0.03818  -0.00654   0.00602   0.01986   0.02746
 Alpha virt. eigenvalues --    0.03442   0.03890   0.04383   0.05112   0.05482
 Alpha virt. eigenvalues --    0.05740   0.06157   0.06539   0.07004   0.07406

 Mulliken charges:
               1
     1  C   -1.036397
     2  N   -0.003775
     3  N   -0.076530
     4  C   -0.395204
     5  N   -0.302087
     6  S    0.934766
     7  S    1.637388
     8  O   -0.574950
     9  O   -0.634773
    10  N   -0.974600
    11  H    0.512193
    12  C   -0.509133
    13  H    0.278385
    14  H    0.287019
    15  H    0.284649
    16  H    0.508796
    17  C    0.939571
    18  C   -1.080089
    19  O   -0.586257
    20  H    0.269325
    21  H    0.268900
    22  H    0.252801
 Sum of Mulliken charges =  -0.00000

 Dipole moment (field-independent basis, Debye):
    X=             -3.6801    Y=              6.0402    Z=             -5.8269  Tot=              9.1641
 Quadrupole moment (field-independent basis, Debye-Ang):
   XX=           -107.3630   YY=            -98.3077   ZZ=            -88.3512
   XY=             -6.2805   XZ=            -16.2323   YZ=              0.8951

  Exact polarizability:     251.756       3.259     196.576       0.047       0.182     124.892
 Approx polarizability:     201.152       0.211     188.060       1.553      -0.215     116.868

                      1                      2                      3
                      A                      A                      A
 Frequencies --     29.9203                53.6868                84.8067
 Red. masses --      6.0108                 4.1291                 1.9570
 Frc consts  --      0.0032                 0.0070                 0.0083
 IR Inten    --      9.5110                 4.2736                 9.4230

                      4                      5                      6
                      A                      A                      A
 Frequencies --     98.6134               102.3308               126.3604
 Red. masses --      7.1463                 1.7324                 1.2287
 Frc consts  --      0.0409                 0.0107                 0.0116
 IR Inten    --      0.2800                 2.8081                 0.2810

                      7                      8                      9
                      A                      A                      A
 Frequencies --    139.7936               166.3610               179.0387
 Red. masses --      3.9688                 5.8333                 4.5736
 Frc consts  --      0.0457                 0.0951                 0.0864
 IR Inten    --     11.0375                22.4310                13.5418

                     10                     11                     12
                      A                      A                      A
 Frequencies --    242.3362               260.1337               277.3233
 Red. masses --      4.6131                 6.0148                 3.1728
 Frc consts  --      0.1596                 0.2398                 0.1438
 IR Inten    --     10.8923                 3.7772                25.0806

                     13                     14                     15
                      A                      A                      A
 Frequencies --    294.4623               362.1559               371.1291
 Red. masses --      2.6097                 3.0373                 4.8326
 Frc consts  --      0.1333                 0.2347                 0.3922
 IR Inten    --      9.4315                20.8570                 7.7413

                     16                     17                     18
                      A                      A                      A
 Frequencies --    385.2536               434.4709               483.3896
 Red. masses --      3.5017                 3.3427                 7.3547
 Frc consts  --      0.3062                 0.3718                 1.0125
 IR Inten    --     19.2479                26.4835                28.4808

                     19                     20                     21
                      A                      A                      A
 Frequencies --    492.2425               540.6622               578.3220
 Red. masses --     10.8117                 6.8741                 5.5390
 Frc consts  --      1.5435                 1.1839                 1.0915
 IR Inten    --     63.2768                73.7461                20.8155

                     22                     23                     24
                      A                      A                      A
 Frequencies --    606.7428               618.1270               652.5240
 Red. masses --      6.5022                 4.4093                 4.6265
 Frc consts  --      1.4103                 0.9926                 1.1606
 IR Inten    --     23.2594                13.7167               161.1650

                     25                     26                     27
                      A                      A                      A
 Frequencies --    662.8056               674.8677               725.3557
 Red. masses --      5.6324                 2.0606                 8.2394
 Frc consts  --      1.4579                 0.5529                 2.5542
 IR Inten    --     43.4140               883.4798                86.8559

                     28                     29                     30
                      A                      A                      A
 Frequencies --    769.0970               906.3909               957.4207
 Red. masses --      9.7794                 3.5213                 6.3507
 Frc consts  --      3.4082                 1.7045                 3.4299
 IR Inten    --     47.4216                63.0762                37.6115

                     31                     32                     33
                      A                      A                      A
 Frequencies --   1011.6716              1035.9497              1064.1150
 Red. masses --      6.7888                 1.6852                 1.8462
 Frc consts  --      4.0937                 1.0656                 1.2317
 IR Inten    --     49.8630                92.0670                16.2487

                     34                     35                     36
                      A                      A                      A
 Frequencies --   1090.2932              1119.7744              1135.7689
 Red. masses --      2.0669                 1.4423                 4.3490
 Frc consts  --      1.4476                 1.0655                 3.3054
 IR Inten    --     57.3648                15.2211               112.2213

                     37                     38                     39
                      A                      A                      A
 Frequencies --   1158.7181              1171.0960              1290.8253
 Red. masses --      1.3007                 7.5323                 3.5043
 Frc consts  --      1.0289                 6.0864                 3.4403
 IR Inten    --      0.5094               463.7924               648.0016

                     40                     41                     42
                      A                      A                      A
 Frequencies --   1341.6589              1370.9078              1409.3393
 Red. masses --     12.7962                 3.0290                 2.5843
 Frc consts  --     13.5712                 3.3541                 3.0242
 IR Inten    --    576.2065               267.0086               140.0443

                     43                     44                     45
                      A                      A                      A
 Frequencies --   1432.9399              1457.7143              1466.1303
 Red. masses --      2.8939                 1.4062                 1.0786
 Frc consts  --      3.5010                 1.7606                 1.3660
 IR Inten    --    522.3611               151.5756                60.7061

                     46                     47                     48
                      A                      A                      A
 Frequencies --   1473.9310              1482.9500              1509.4292
 Red. masses --      1.0443                 1.0375                 1.1086
 Frc consts  --      1.3367                 1.3443                 1.4882
 IR Inten    --     18.2721                25.0693                 4.5956

                     49                     50                     51
                      A                      A                      A
 Frequencies --   1546.2925              1589.5829              1635.3181
 Red. masses --      5.3285                 1.1036                12.4730
 Frc consts  --      7.5065                 1.6430                19.6529
 IR Inten    --   1155.0216               118.5226               109.9744

                     52                     53                     54
                      A                      A                      A
 Frequencies --   1694.7751              3097.5485              3128.4981
 Red. masses --     10.0846                 1.0374                 1.0318
 Frc consts  --     17.0661                 5.8643                 5.9501
 IR Inten    --    609.5861                 0.0123                15.7301

                     55                     56                     57
                      A                      A                      A
 Frequencies --   3168.0434              3209.7136              3214.0677
 Red. masses --      1.1010                 1.1045                 1.1083
 Frc consts  --      6.5108                 6.7044                 6.7453
 IR Inten    --      1.4112                14.2752                 2.9694

                     58                     59                     60
                      A                      A                      A
 Frequencies --   3245.3835              3486.0938              3589.7163
 Red. masses --      1.1069                 1.0481                 1.1010
 Frc consts  --      6.8690                 7.5047                 8.3591
 IR Inten    --      0.0366               180.4152               195.0593

 - Thermochemistry -
 -------------------
 Temperature   298.150 Kelvin.  Pressure   1.00000 Atm.
 Atom     1 has atomic number  6 and mass  12.00000

 Molecular mass:   236.00378 amu.
 Principal axes and moments of inertia in atomic units:
                           1         2         3
     Eigenvalues --  1484.216645581.564236662.74545
           X            0.99997  -0.00385  -0.00672
           Y            0.00387   0.99999   0.00234
           Z            0.00671  -0.00236   0.99997
 This molecule is an asymmetric top.
 Rotational symmetry number  1.
 Warning -- assumption of classical behavior for rotation
           may cause significant error
 Rotational temperatures (Kelvin)      0.05836     0.01552     0.01300
 Rotational constants (GHZ):           1.21596     0.32334     0.27087
 Zero-point vibrational energy     406158.3 (Joules/Mol)
                                   97.07417 (Kcal/Mol)
 Warning -- explicit consideration of  23 degrees of freedom as
           vibrations may cause significant error
 Vibrational temperatures:     43.05    77.24   122.02   141.88   147.23
          (Kelvin)            181.80   201.13   239.36   257.60   348.67
                              374.27   399.01   423.67   521.06   533.97
                              554.29   625.11   695.49   708.23   777.89
                              832.08   872.97   889.35   938.84   953.63
                              970.98  1043.63  1106.56  1304.09  1377.51
                             1455.57  1490.50  1531.02  1568.69  1611.11
                             1634.12  1667.14  1684.95  1857.21  1930.35
                             1972.43  2027.72  2061.68  2097.33  2109.43
                             2120.66  2133.63  2171.73  2224.77  2287.06
                             2352.86  2438.40  4456.68  4501.21  4558.11
                             4618.06  4624.33  4669.38  5015.71  5164.80

 Zero-point correction=                           0.154698 (Hartree/Particle)
 Thermal correction to Energy=                    0.169257
 Thermal correction to Enthalpy=                  0.170202
 Thermal correction to Gibbs Free Energy=         0.111869
 Sum of electronic and zero-point Energies=          -1435.887132
 Sum of electronic and thermal Energies=             -1435.872572
 Sum of electronic and thermal Enthalpies=           -1435.871628
 Sum of electronic and thermal Free Energies=        -1435.929961

                     E (Thermal)             CV                S
                      KCal/Mol        Cal/Mol-Kelvin    Cal/Mol-Kelvin
 Total                  106.211             51.658            122.771
 Electronic               0.000              0.000              0.000
 Translational            0.889              2.981             42.278
 Rotational               0.889              2.981             32.379
 Vibrational            104.433             45.696             48.115
 Vibration     1          0.594              1.984              5.835
 Vibration     2          0.596              1.976              4.677
 Vibration     3          0.601              1.960              3.776
 Vibration     4          0.604              1.950              3.482
 Vibration     5          0.604              1.947              3.409
 Vibration     6          0.611              1.927              3.001
 Vibration     7          0.615              1.914              2.807
 Vibration     8          0.624              1.884              2.476
 Vibration     9          0.629              1.868              2.338
 Vibration    10          0.659              1.775              1.786
 Vibration    11          0.668              1.746              1.661
 Vibration    12          0.678              1.715              1.550
 Vibration    13          0.689              1.684              1.448
 Vibration    14          0.736              1.550              1.113
 Vibration    15          0.743              1.531              1.075
 Vibration    16          0.754              1.502              1.018
 Vibration    17          0.795              1.395              0.844
 Vibration    18          0.840              1.287              0.701
 Vibration    19          0.848              1.267              0.678
 Vibration    20          0.896              1.160              0.564
 Vibration    21          0.935              1.078              0.488
 Vibration    22          0.965              1.018              0.438
 Vibration    23          0.978              0.994              0.420

                           ! Non-Optimized Parameters !
 Normal termination of Gaussian 16 at Sat May 21 01:15:37 2022.
