 Gaussian 16, Revision C.01,
 Gaussian 16:  ES64L-G16RevC.01  3-Jul-2019

 -----------------------------------------------------
 #m062X/gen 6D OPT Freq=noraman SCRF=(SMD,Solvent=h2o)
 -----------------------------------------------------

 --------------------
 HA.37.smd.a3c2d2.smd
 --------------------
 Symbolic Z-matrix:
 Charge =  0 Multiplicity = 1

 SCF Done:  E(RM062X) =  -1867.14556242     A.U. after   17 cycles
 SCF Done:  E(RM062X) =  -1867.15582971     A.U. after   17 cycles
 SCF Done:  E(RM062X) =  -1867.15560971     A.U. after   18 cycles
 SCF Done:  E(RM062X) =  -1867.16072625     A.U. after   14 cycles
 SCF Done:  E(RM062X) =  -1867.16277522     A.U. after   17 cycles
 SCF Done:  E(RM062X) =  -1867.16308482     A.U. after   14 cycles
 SCF Done:  E(RM062X) =  -1867.16325573     A.U. after   16 cycles
 SCF Done:  E(RM062X) =  -1867.16303694     A.U. after   16 cycles
 SCF Done:  E(RM062X) =  -1867.16352379     A.U. after   15 cycles
 SCF Done:  E(RM062X) =  -1867.16363184     A.U. after   14 cycles
 SCF Done:  E(RM062X) =  -1867.16368590     A.U. after   13 cycles
 SCF Done:  E(RM062X) =  -1867.16369848     A.U. after   13 cycles
 SCF Done:  E(RM062X) =  -1867.16370397     A.U. after   11 cycles
 SCF Done:  E(RM062X) =  -1867.16370403     A.U. after   11 cycles
 SCF Done:  E(RM062X) =  -1867.16370378     A.U. after   11 cycles
 SCF Done:  E(RM062X) =  -1867.16370365     A.U. after   10 cycles
 SCF Done:  E(RM062X) =  -1867.16370403     A.U. after   11 cycles
 SCF Done:  E(RM062X) =  -1867.16370369     A.U. after   11 cycles
 Optimization completed.
    -- Stationary point found.
 Normal termination of Gaussian 16 at Sat Jul  2 14:02:50 2022.

 ------------------------------------------------------------------
 #N Geom=AllCheck Guess=TCheck SCRF=Check GenChk RM062X/ChkBas Freq
 ------------------------------------------------------------------

 Structure from the checkpoint file:  "/jobfs/50071383.gadi-pbs/Gau-50072.chk"
 --------------------
 HA.37.smd.a3c2d2.smd
 --------------------
 Charge =  0 Multiplicity = 1

                         Standard orientation:
 ---------------------------------------------------------------------
 Center     Atomic      Atomic             Coordinates (Angstroms)
 Number     Number       Type             X           Y           Z
 ---------------------------------------------------------------------
      1          6           0        1.882234   -0.121657   -0.209675
      2          6           0        2.936254    0.691079    0.227495
      3         17           0        4.408445    0.008185    0.847317
      4          6           0        2.819496    2.074235    0.165418
      5          1           0        3.640497    2.698165    0.502753
      6          6           0        1.647510    2.649226   -0.322794
      7          6           0        0.592943    1.844207   -0.743390
      8          6           0        0.720592    0.455499   -0.700957
      9         16           0        1.977850   -1.908965   -0.104486
     10          8           0        3.005715   -2.367453   -1.037411
     11          8           0        2.085665   -2.260746    1.310139
     12          7           0        0.555336   -2.524763   -0.630087
     13          1           0        0.376495   -2.382012   -1.625717
     14          1           0       -0.251227   -2.281801   -0.049903
     15          1           0       -0.083105   -0.175453   -1.061204
     16          1           0        1.553604    3.730349   -0.361909
     17          6           0       -0.648749    2.493766   -1.270742
     18          7           0       -1.839495    1.917313   -0.967997
     19          8           0       -0.591752    3.499907   -1.982203
     20          7           0       -1.977417    1.012411    0.065927
     21          6           0       -2.618282    1.524169    1.303978
     22          6           0       -2.956167    0.220404    2.050718
     23          6           0       -3.115402   -0.779393    0.927846
     24          6           0       -2.542669   -0.243143   -0.231715
     25          6           0       -1.707549    2.479181    2.047669
     26          6           0       -2.511003   -0.937585   -1.434645
     27          6           0       -3.062981   -2.225716   -1.451211
     28          6           0       -3.625704   -2.782168   -0.302532
     29          6           0       -3.656143   -2.054992    0.897702
     30          1           0       -2.680840    2.386517   -1.312002
     31          1           0       -3.552284    2.033816    1.015735
     32          1           0       -3.845673    0.323726    2.676394
     33          1           0       -2.114952   -0.065394    2.696856
     34          1           0       -1.460368    3.352061    1.432721
     35          1           0       -0.777700    1.975389    2.333753
     36          1           0       -2.205082    2.837437    2.954459
     37          1           0       -2.074407   -0.498662   -2.328121
     38          1           0       -3.053634   -2.794341   -2.376757
     39          1           0       -4.050280   -3.780908   -0.338325
     40          1           0       -4.102495   -2.485648    1.790564
 ---------------------------------------------------------------------

 SCF Done:  E(RM062X) =  -1867.16370369     A.U. after    1 cycles

 The electronic state is 1-A.
 Alpha  occ. eigenvalues -- -102.69288 -90.19084 -19.66509 -19.66461 -19.64292
 Alpha  occ. eigenvalues --  -14.83238 -14.81685 -14.80861 -10.68545 -10.65132
 Alpha  occ. eigenvalues --  -10.61728 -10.59580 -10.59196 -10.59103 -10.58845
 Alpha  occ. eigenvalues --  -10.58650 -10.58432 -10.55948 -10.55640 -10.55604
 Alpha  occ. eigenvalues --  -10.55555 -10.55143 -10.54990 -10.53424  -9.83938
 Alpha  occ. eigenvalues --   -8.49972  -7.56350  -7.55676  -7.55647  -6.42179
 Alpha  occ. eigenvalues --   -6.42156  -6.42055  -1.26597  -1.19349  -1.14963
 Alpha  occ. eigenvalues --   -1.13785  -1.04014  -1.02696  -1.00409  -0.96746
 Alpha  occ. eigenvalues --   -0.94248  -0.89694  -0.88332  -0.86831  -0.85220
 Alpha  occ. eigenvalues --   -0.82531  -0.78027  -0.77308  -0.74735  -0.72406
 Alpha  occ. eigenvalues --   -0.70423  -0.68571  -0.68159  -0.67123  -0.63919
 Alpha  occ. eigenvalues --   -0.62383  -0.61883  -0.61251  -0.58524  -0.58005
 Alpha  occ. eigenvalues --   -0.57781  -0.55992  -0.55421  -0.54996  -0.53682
 Alpha  occ. eigenvalues --   -0.52902  -0.52138  -0.51362  -0.50381  -0.50108
 Alpha  occ. eigenvalues --   -0.48998  -0.47992  -0.47225  -0.46726  -0.45647
 Alpha  occ. eigenvalues --   -0.44690  -0.44413  -0.43925  -0.43052  -0.42831
 Alpha  occ. eigenvalues --   -0.42366  -0.42018  -0.41176  -0.40567  -0.40322
 Alpha  occ. eigenvalues --   -0.39426  -0.39287  -0.38502  -0.37214  -0.36098
 Alpha  occ. eigenvalues --   -0.34114  -0.33969  -0.32187  -0.30700  -0.26503
 Alpha virt. eigenvalues --   -0.03537  -0.01507   0.00834   0.01347   0.01932
 Alpha virt. eigenvalues --    0.02198   0.02679   0.02765   0.03259   0.03946
 Alpha virt. eigenvalues --    0.04116   0.04330   0.04503   0.04854   0.05170

 Mulliken charges:
               1
     1  C   -2.127973
     2  C    0.927676
     3  Cl   0.302336
     4  C    0.059667
     5  H    0.288244
     6  C   -0.196414
     7  C    0.031219
     8  C   -0.228571
     9  S    1.518747
    10  O   -0.526695
    11  O   -0.534760
    12  N   -1.269671
    13  H    0.547178
    14  H    0.553525
    15  H    0.283439
    16  H    0.292480
    17  C    0.688380
    18  N   -0.534758
    19  O   -0.563179
    20  N   -0.100528
    21  C    0.059499
    22  C   -0.655500
    23  C    1.445840
    24  C   -0.794859
    25  C   -0.772570
    26  C   -0.401428
    27  C   -0.316615
    28  C   -0.023456
    29  C   -1.016705
    30  H    0.509691
    31  H    0.252534
    32  H    0.268354
    33  H    0.269794
    34  H    0.249881
    35  H    0.252568
    36  H    0.247877
    37  H    0.274518
    38  H    0.247009
    39  H    0.241308
    40  H    0.251916
 Sum of Mulliken charges =  -0.00000

 Dipole moment (field-independent basis, Debye):
    X=             -9.7503    Y=              3.7363    Z=              1.5381  Tot=             10.5544
 Quadrupole moment (field-independent basis, Debye-Ang):
   XX=           -160.1174   YY=           -170.8904   ZZ=           -156.7647
   XY=             23.5757   XZ=             -4.8788   YZ=             20.0143

  Exact polarizability:     346.107      24.104     401.463      14.119      -7.018     309.389
 Approx polarizability:     294.369      15.942     331.960      11.263      -6.596     275.436

                      1                      2                      3
                      A                      A                      A
 Frequencies --     15.1796                24.9619                31.9863
 Red. masses --      7.3001                 5.6084                 5.2973
 Frc consts  --      0.0010                 0.0021                 0.0032
 IR Inten    --      0.4902                 1.9572                 0.2672

                      4                      5                      6
                      A                      A                      A
 Frequencies --     58.3599                65.7456                81.8689
 Red. masses --      6.9436                 7.3819                 3.3278
 Frc consts  --      0.0139                 0.0188                 0.0131
 IR Inten    --     15.7305                 4.1686                 0.4722

                      7                      8                      9
                      A                      A                      A
 Frequencies --     92.4184               106.6802               124.8731
 Red. masses --      6.4809                 5.3611                 7.5645
 Frc consts  --      0.0326                 0.0359                 0.0695
 IR Inten    --      1.4490                 0.8311                 3.7282

                     10                     11                     12
                      A                      A                      A
 Frequencies --    160.0668               173.8132               212.2072
 Red. masses --      5.1661                16.3830                 3.1925
 Frc consts  --      0.0780                 0.2916                 0.0847
 IR Inten    --      3.0705                 1.2385                 2.5353

                     13                     14                     15
                      A                      A                      A
 Frequencies --    239.5231               256.4230               267.4949
 Red. masses --      3.4566                 5.2711                 1.2272
 Frc consts  --      0.1168                 0.2042                 0.0517
 IR Inten    --      3.2253                22.8001                 3.9342

                     16                     17                     18
                      A                      A                      A
 Frequencies --    275.0194               296.9845               302.5322
 Red. masses --      5.3194                 6.9497                 6.6628
 Frc consts  --      0.2371                 0.3611                 0.3593
 IR Inten    --     34.4912                 5.6838                 1.9879

                     19                     20                     21
                      A                      A                      A
 Frequencies --    304.8353               323.9611               353.0120
 Red. masses --      3.8027                 3.8745                 4.4534
 Frc consts  --      0.2082                 0.2396                 0.3270
 IR Inten    --      3.5699                 9.0696                27.0178

                     22                     23                     24
                      A                      A                      A
 Frequencies --    372.0059               397.9355               426.9699
 Red. masses --      2.1520                 5.7113                 3.7357
 Frc consts  --      0.1755                 0.5329                 0.4013
 IR Inten    --      5.8243                 2.3545                 3.1175

                     25                     26                     27
                      A                      A                      A
 Frequencies --    433.5968               461.0624               466.0281
 Red. masses --      3.3881                 4.8545                 3.9582
 Frc consts  --      0.3753                 0.6080                 0.5065
 IR Inten    --     38.4677                28.4368                56.6699

                     28                     29                     30
                      A                      A                      A
 Frequencies --    489.4827               492.7160               499.6119
 Red. masses --      2.3713                 3.0966                 1.9852
 Frc consts  --      0.3347                 0.4429                 0.2920
 IR Inten    --     31.8961                62.9330                25.5891

                     31                     32                     33
                      A                      A                      A
 Frequencies --    519.1703               532.0962               550.2224
 Red. masses --      2.0715                 5.4198                 2.7334
 Frc consts  --      0.3290                 0.9041                 0.4876
 IR Inten    --     83.1694                13.8859                51.2261

                     34                     35                     36
                      A                      A                      A
 Frequencies --    579.0637               589.2612               603.9691
 Red. masses --      8.5745                 4.2294                 5.3488
 Frc consts  --      1.6940                 0.8653                 1.1496
 IR Inten    --    128.4058                87.9494                 0.6094

                     37                     38                     39
                      A                      A                      A
 Frequencies --    622.1750               652.6403               676.7169
 Red. masses --      5.0715                 4.9561                 2.0636
 Frc consts  --      1.1567                 1.2438                 0.5568
 IR Inten    --      9.9738                47.7220               395.6162

                     40                     41                     42
                      A                      A                      A
 Frequencies --    682.9490               703.4753               725.0672
 Red. masses --      5.1720                 4.1098                 4.9098
 Frc consts  --      1.4213                 1.1983                 1.5208
 IR Inten    --     10.0673               262.0090                64.3915

                     43                     44                     45
                      A                      A                      A
 Frequencies --    741.5239               765.5151               776.7091
 Red. masses --      2.5347                 4.5312                 1.5316
 Frc consts  --      0.8212                 1.5645                 0.5444
 IR Inten    --     38.3196                60.0975               150.7985

                     46                     47                     48
                      A                      A                      A
 Frequencies --    823.7547               837.3408               868.1557
 Red. masses --      4.0420                 4.1480                 1.5509
 Frc consts  --      1.6160                 1.7136                 0.6887
 IR Inten    --     31.9159                18.4146                47.7603

                     49                     50                     51
                      A                      A                      A
 Frequencies --    880.1204               888.2242               907.0964
 Red. masses --      4.7451                 1.3171                 2.5485
 Frc consts  --      2.1656                 0.6122                 1.2355
 IR Inten    --     57.3067                 9.9784                 3.8041

                     52                     53                     54
                      A                      A                      A
 Frequencies --    911.0511               927.7594               947.6003
 Red. masses --      3.4167                 1.5009                 1.4520
 Frc consts  --      1.6709                 0.7612                 0.7682
 IR Inten    --     58.0348                 2.3570                17.7733

                     55                     56                     57
                      A                      A                      A
 Frequencies --    973.9590               979.1633              1006.5645
 Red. masses --      1.3547                 2.1298                 1.3698
 Frc consts  --      0.7571                 1.2031                 0.8177
 IR Inten    --      5.3195                 0.7310                 0.7134

                     58                     59                     60
                      A                      A                      A
 Frequencies --   1014.0867              1052.9279              1056.0562
 Red. masses --      1.2893                 2.0088                 6.6684
 Frc consts  --      0.7812                 1.3121                 4.3817
 IR Inten    --      0.1570                21.3871                19.1126

                     61                     62                     63
                      A                      A                      A
 Frequencies --   1088.7537              1110.4144              1118.5063
 Red. masses --      1.7240                 2.0880                 1.2620
 Frc consts  --      1.2040                 1.5169                 0.9302
 IR Inten    --     23.4048                16.5459                 2.8729

                     64                     65                     66
                      A                      A                      A
 Frequencies --   1135.8424              1140.2433              1154.2641
 Red. masses --      3.3260                 4.4158                 1.9815
 Frc consts  --      2.5282                 3.3827                 1.5554
 IR Inten    --    189.3922               284.6221                 4.6316

                     67                     68                     69
                      A                      A                      A
 Frequencies --   1161.3963              1167.1149              1173.3055
 Red. masses --      1.7461                 1.1415                 2.0781
 Frc consts  --      1.3876                 0.9161                 1.6856
 IR Inten    --     33.9584                 1.3079                45.9960

                     70                     71                     72
                      A                      A                      A
 Frequencies --   1183.1283              1195.1953              1219.4382
 Red. masses --      1.9851                 2.0925                 1.8180
 Frc consts  --      1.6372                 1.7611                 1.5928
 IR Inten    --     69.7047                38.5201                 9.2017

                     73                     74                     75
                      A                      A                      A
 Frequencies --   1240.3116              1280.3944              1304.5328
 Red. masses --      1.9197                 1.8826                11.6527
 Frc consts  --      1.7400                 1.8184                11.6839
 IR Inten    --     39.3585                44.4646               576.8194

                     76                     77                     78
                      A                      A                      A
 Frequencies --   1312.9942              1321.2508              1328.8981
 Red. masses --      1.3899                 1.9756                 1.9803
 Frc consts  --      1.4117                 2.0320                 2.0605
 IR Inten    --     27.6929                26.8775                77.7825

                     79                     80                     81
                      A                      A                      A
 Frequencies --   1329.8994              1362.9990              1392.2392
 Red. masses --      4.1803                 2.3623                 1.4886
 Frc consts  --      4.3561                 2.5857                 1.7001
 IR Inten    --     16.3818                 0.7234                71.7291

                     82                     83                     84
                      A                      A                      A
 Frequencies --   1403.0433              1418.4898              1430.6494
 Red. masses --      2.4525                 2.0689                 1.5366
 Frc consts  --      2.8445                 2.4527                 1.8530
 IR Inten    --    336.9968                72.9733                61.3728

                     85                     86                     87
                      A                      A                      A
 Frequencies --   1438.9393              1479.9429              1493.2642
 Red. masses --      3.3880                 1.1147                 1.0731
 Frc consts  --      4.1331                 1.4384                 1.4098
 IR Inten    --     19.7776                 5.6457                12.9843

                     88                     89                     90
                      A                      A                      A
 Frequencies --   1498.4968              1502.0854              1509.9116
 Red. masses --      2.4781                 1.0800                 2.6319
 Frc consts  --      3.2785                 1.4357                 3.5353
 IR Inten    --    147.9424                37.8248                30.5747

                     91                     92                     93
                      A                      A                      A
 Frequencies --   1527.7158              1533.9309              1590.8243
 Red. masses --      3.3900                 3.1370                 1.1071
 Frc consts  --      4.6616                 4.3489                 1.6507
 IR Inten    --     85.6020                89.5792               113.3986

                     94                     95                     96
                      A                      A                      A
 Frequencies --   1645.7965              1676.6643              1677.2149
 Red. masses --      7.8772                 7.0402                 6.2846
 Frc consts  --     12.5711                11.6607                10.4161
 IR Inten    --     33.0225                14.9353               128.6293

                     97                     98                     99
                      A                      A                      A
 Frequencies --   1688.6417              1705.7412              3030.6041
 Red. masses --      7.4669                 7.9572                 1.0837
 Frc consts  --     12.5448                13.6406                 5.8644
 IR Inten    --     77.5373              1180.8575                89.6299

                    100                    101                    102
                      A                      A                      A
 Frequencies --   3069.9996              3075.5507              3148.4222
 Red. masses --      1.0694                 1.0366                 1.1031
 Frc consts  --      5.9382                 5.7772                 6.4426
 IR Inten    --     34.2117                29.2141                36.8284

                    103                    104                    105
                      A                      A                      A
 Frequencies --   3158.2579              3159.3773              3219.4145
 Red. masses --      1.0967                 1.1018                 1.0883
 Frc consts  --      6.4454                 6.4797                 6.6457
 IR Inten    --      5.4755                49.8603                 6.1204

                    106                    107                    108
                      A                      A                      A
 Frequencies --   3224.1583              3232.9191              3243.7594
 Red. masses --      1.0900                 1.0935                 1.0977
 Frc consts  --      6.6762                 6.7337                 6.8052
 IR Inten    --      6.2763                15.0913                18.2673

                    109                    110                    111
                      A                      A                      A
 Frequencies --   3246.5815              3257.7737              3274.0628
 Red. masses --      1.0907                 1.0963                 1.0913
 Frc consts  --      6.7736                 6.8554                 6.8924
 IR Inten    --      0.6484                 1.5293                28.2799

                    112                    113                    114
                      A                      A                      A
 Frequencies --   3485.8519              3494.5985              3595.1263
 Red. masses --      1.0483                 1.0776                 1.1010
 Frc consts  --      7.5047                 7.7534                 8.3847
 IR Inten    --    182.3706               104.8380               189.2845

 - Thermochemistry -
 -------------------
 Temperature   298.150 Kelvin.  Pressure   1.00000 Atm.
 Atom     1 has atomic number  6 and mass  12.00000

 Molecular mass:   365.06009 amu.
 Principal axes and moments of inertia in atomic units:
                           1         2         3
     Eigenvalues --  6240.96666********************
           X            0.99973   0.02019  -0.01131
           Y           -0.01986   0.99938   0.02910
           Z            0.01189  -0.02886   0.99951
 This molecule is an asymmetric top.
 Rotational symmetry number  1.
 Warning -- assumption of classical behavior for rotation
           may cause significant error
 Rotational temperatures (Kelvin)      0.01388     0.00842     0.00644
 Rotational constants (GHZ):           0.28918     0.17535     0.13410
 Zero-point vibrational energy     810234.9 (Joules/Mol)
                                  193.65080 (Kcal/Mol)
 Warning -- explicit consideration of  36 degrees of freedom as
           vibrations may cause significant error
 Vibrational temperatures:     21.84    35.91    46.02    83.97    94.59
          (Kelvin)            117.79   132.97   153.49   179.66   230.30
                              250.08   305.32   344.62   368.94   384.87
                              395.69   427.29   435.28   438.59   466.11
                              507.91   535.23   572.54   614.31   623.85
                              663.37   670.51   704.26   708.91   718.83
                              746.97   765.57   791.65   833.14   847.82
                              868.98   895.17   939.00   973.64   982.61
                             1012.14  1043.21  1066.89  1101.41  1117.51
                             1185.20  1204.75  1249.08  1266.30  1277.96
                             1305.11  1310.80  1334.84  1363.39  1401.31
                             1408.80  1448.22  1459.04  1514.93  1519.43
                             1566.47  1597.64  1609.28  1634.22  1640.56
                             1660.73  1670.99  1679.22  1688.12  1702.26
                             1719.62  1754.50  1784.53  1842.20  1876.93
                             1889.11  1900.99  1911.99  1913.43  1961.05
                             2003.12  2018.67  2040.89  2058.39  2070.31
                             2129.31  2148.47  2156.00  2161.17  2172.43
                             2198.04  2206.98  2288.84  2367.93  2412.35
                             2413.14  2429.58  2454.18  4360.36  4417.04
                             4425.03  4529.88  4544.03  4545.64  4632.02
                             4638.84  4651.45  4667.05  4671.11  4687.21
                             4710.65  5015.36  5027.95  5172.58

 Zero-point correction=                           0.308602 (Hartree/Particle)
 Thermal correction to Energy=                    0.329971
 Thermal correction to Enthalpy=                  0.330915
 Thermal correction to Gibbs Free Energy=         0.256448
 Sum of electronic and zero-point Energies=          -1866.855101
 Sum of electronic and thermal Energies=             -1866.833733
 Sum of electronic and thermal Enthalpies=           -1866.832789
 Sum of electronic and thermal Free Energies=        -1866.907256

                     E (Thermal)             CV                S
                      KCal/Mol        Cal/Mol-Kelvin    Cal/Mol-Kelvin
 Total                  207.060             82.906            156.729
 Electronic               0.000              0.000              0.000
 Translational            0.889              2.981             43.578
 Rotational               0.889              2.981             35.112
 Vibrational            205.282             76.945             78.039
 Vibration     1          0.593              1.986              7.182
 Vibration     2          0.593              1.985              6.194
 Vibration     3          0.594              1.983              5.702
 Vibration     4          0.596              1.974              4.512
 Vibration     5          0.597              1.971              4.277
 Vibration     6          0.600              1.962              3.846
 Vibration     7          0.602              1.955              3.608
 Vibration     8          0.606              1.944              3.328
 Vibration     9          0.610              1.928              3.024
 Vibration    10          0.622              1.891              2.549
 Vibration    11          0.627              1.875              2.394
 Vibration    12          0.643              1.822              2.025
 Vibration    13          0.657              1.780              1.806
 Vibration    14          0.666              1.752              1.686
 Vibration    15          0.673              1.733              1.612
 Vibration    16          0.677              1.720              1.564
 Vibration    17          0.691              1.679              1.434
 Vibration    18          0.694              1.669              1.403
 Vibration    19          0.696              1.665              1.390
 Vibration    20          0.709              1.628              1.290
 Vibration    21          0.729              1.569              1.153
 Vibration    22          0.744              1.530              1.072
 Vibration    23          0.764              1.475              0.970
 Vibration    24          0.789              1.412              0.869
 Vibration    25          0.794              1.397              0.847
 Vibration    26          0.819              1.336              0.763
 Vibration    27          0.823              1.325              0.749
 Vibration    28          0.845              1.273              0.685
 Vibration    29          0.848              1.266              0.677
 Vibration    30          0.855              1.251              0.659
 Vibration    31          0.874              1.208              0.612
 Vibration    32          0.887              1.179              0.583
 Vibration    33          0.906              1.139              0.544
 Vibration    34          0.936              1.077              0.487
 Vibration    35          0.947              1.055              0.468
 Vibration    36          0.962              1.023              0.443

 Optimization completed.
    -- Stationary point found.
 Normal termination of Gaussian 16 at Sat Jul  2 14:39:38 2022.
