 Gaussian 16, Revision C.01,
 Gaussian 16:  ES64L-G16RevC.01  3-Jul-2019

 -----------------------------------------------------
 #m062X/gen 6D OPT Freq=noraman SCRF=(SMD,Solvent=h2o)
 -----------------------------------------------------

 -----
 a3 b1
 -----
 Symbolic Z-matrix:
 Charge =  0 Multiplicity = 1

 SCF Done:  E(RM062X) =  -2214.66546083     A.U. after   16 cycles
 SCF Done:  E(RM062X) =  -2214.64859087     A.U. after   17 cycles
 SCF Done:  E(RM062X) =  -2214.66581031     A.U. after   15 cycles
 SCF Done:  E(RM062X) =  -2214.66949370     A.U. after   16 cycles
 SCF Done:  E(RM062X) =  -2214.67065540     A.U. after   14 cycles
 SCF Done:  E(RM062X) =  -2214.67012698     A.U. after   16 cycles
 SCF Done:  E(RM062X) =  -2214.67079300     A.U. after   14 cycles
 SCF Done:  E(RM062X) =  -2214.67096261     A.U. after   14 cycles
 SCF Done:  E(RM062X) =  -2214.67150223     A.U. after   14 cycles
 SCF Done:  E(RM062X) =  -2214.67174168     A.U. after   13 cycles
 SCF Done:  E(RM062X) =  -2214.67185641     A.U. after   14 cycles
 SCF Done:  E(RM062X) =  -2214.67193242     A.U. after   13 cycles
 SCF Done:  E(RM062X) =  -2214.67195002     A.U. after   11 cycles
 SCF Done:  E(RM062X) =  -2214.67195885     A.U. after   12 cycles
 SCF Done:  E(RM062X) =  -2214.67196362     A.U. after   11 cycles
 SCF Done:  E(RM062X) =  -2214.67196641     A.U. after   10 cycles
 SCF Done:  E(RM062X) =  -2214.67196631     A.U. after   11 cycles
 SCF Done:  E(RM062X) =  -2214.67196645     A.U. after    9 cycles
 SCF Done:  E(RM062X) =  -2214.67196639     A.U. after    9 cycles
 Optimization completed.
    -- Stationary point found.
 Normal termination of Gaussian 16 at Thu May 19 14:48:35 2022.

 ------------------------------------------------------------------
 #N Geom=AllCheck Guess=TCheck SCRF=Check GenChk RM062X/ChkBas Freq
 ------------------------------------------------------------------

 Structure from the checkpoint file:  "/jobfs/40643999.gadi-pbs/Gau-663286.chk"
 -----
 a3 b1
 -----
 Charge =  0 Multiplicity = 1

                         Standard orientation:
 ---------------------------------------------------------------------
 Center     Atomic      Atomic             Coordinates (Angstroms)
 Number     Number       Type             X           Y           Z
 ---------------------------------------------------------------------
      1          6           0        0.364047    0.075608    0.039921
      2          6           0       -0.433689    1.233320    0.021629
      3         17           0        0.182907    2.857076    0.055095
      4          6           0       -1.824342    1.148948   -0.010410
      5          1           0       -2.418454    2.056138   -0.023948
      6          6           0       -2.430568   -0.096092   -0.020500
      7         17           0       -4.161266   -0.195976   -0.065472
      8          6           0       -1.684293   -1.265628    0.009885
      9          1           0       -2.162653   -2.238902    0.009573
     10          6           0       -0.301274   -1.164989    0.043876
     11         17           0        0.554241   -2.681329    0.084843
     12         16           0        2.176481    0.090570    0.071838
     13          8           0        2.639548    1.463292   -0.044095
     14          8           0        2.584758   -0.703482    1.223886
     15          7           0        2.722568   -0.674566   -1.271742
     16          1           0        2.461820   -0.194051   -2.134795
     17          1           0        2.513915   -1.671919   -1.308692
 ---------------------------------------------------------------------

 SCF Done:  E(RM062X) =  -2214.67196639     A.U. after    1 cycles

 The electronic state is 1-A.
 Alpha  occ. eigenvalues -- -102.70102-102.69319-102.69208 -90.19661 -19.66835
 Alpha  occ. eigenvalues --  -19.66790 -14.80943 -10.66314 -10.66313 -10.65114
 Alpha  occ. eigenvalues --  -10.63355 -10.59637 -10.59506  -9.84761  -9.83989
 Alpha  occ. eigenvalues --   -9.83850  -8.50503  -7.57175  -7.56497  -7.56460
 Alpha  occ. eigenvalues --   -7.56400  -7.56279  -7.55729  -7.55698  -7.55588
 Alpha  occ. eigenvalues --   -7.55530  -6.42700  -6.42690  -6.42612  -1.27275
 Alpha  occ. eigenvalues --   -1.15637  -1.05336  -1.03919  -1.00401  -0.99951
 Alpha  occ. eigenvalues --   -0.93297  -0.88070  -0.85720  -0.77156  -0.72085
 Alpha  occ. eigenvalues --   -0.70929  -0.65554  -0.62817  -0.60957  -0.59756
 Alpha  occ. eigenvalues --   -0.57871  -0.55102  -0.54975  -0.52696  -0.52290
 Alpha  occ. eigenvalues --   -0.48961  -0.47076  -0.46084  -0.45535  -0.44808
 Alpha  occ. eigenvalues --   -0.43706  -0.42116  -0.41937  -0.40204  -0.39941
 Alpha  occ. eigenvalues --   -0.39085  -0.38536  -0.37692  -0.33000  -0.32414
 Alpha virt. eigenvalues --   -0.03696  -0.02040   0.00212   0.00968   0.02375
 Alpha virt. eigenvalues --    0.02479   0.03663   0.04036   0.04861   0.05012
 Alpha virt. eigenvalues --    0.06431   0.06682   0.07216   0.07941   0.08280

 Mulliken charges:
               1
     1  C   -2.524743
     2  C    0.409829
     3  Cl   0.273143
     4  C   -0.184961
     5  H    0.301397
     6  C   -0.016569
     7  Cl   0.250767
     8  C   -0.083641
     9  H    0.308154
    10  C    0.946547
    11  Cl   0.244895
    12  S    1.238927
    13  O   -0.620447
    14  O   -0.555650
    15  N   -0.987973
    16  H    0.512292
    17  H    0.488033
 Sum of Mulliken charges =  -0.00000

 Dipole moment (field-independent basis, Debye):
    X=             -5.5857    Y=             -2.7911    Z=             -4.9787  Tot=              7.9861
 Quadrupole moment (field-independent basis, Debye-Ang):
   XX=           -117.0806   YY=           -100.5910   ZZ=           -100.4977
   XY=             -6.4227   XZ=            -11.7022   YZ=              4.1472

  Exact polarizability:     234.896      -0.628     215.449      -0.371      -1.637     116.861
 Approx polarizability:     200.628       0.014     200.938       0.855      -2.929     112.395

                      1                      2                      3
                      A                      A                      A
 Frequencies --     29.5829                75.6551               143.4122
 Red. masses --     16.4032                 7.5555                12.2002
 Frc consts  --      0.0085                 0.0255                 0.1478
 IR Inten    --      4.9672                 9.8896                 3.1032

                      4                      5                      6
                      A                      A                      A
 Frequencies --    173.8033               186.2164               208.8883
 Red. masses --     15.5171                 4.7477                15.1017
 Frc consts  --      0.2762                 0.0970                 0.3882
 IR Inten    --      5.2711                 0.6513                 2.2440

                      7                      8                      9
                      A                      A                      A
 Frequencies --    210.3559               220.5631               248.1087
 Red. masses --      5.7556                10.9871                18.6001
 Frc consts  --      0.1501                 0.3149                 0.6746
 IR Inten    --     16.6465                 3.5509                 0.4281

                     10                     11                     12
                      A                      A                      A
 Frequencies --    261.8732               315.1864               381.5476
 Red. masses --      4.9008                 1.7601                20.0758
 Frc consts  --      0.1980                 0.1030                 1.7219
 IR Inten    --     17.2390                17.1409                 0.9639

                     13                     14                     15
                      A                      A                      A
 Frequencies --    386.7153               445.9574               457.7421
 Red. masses --      6.8435                 8.2896                 2.9856
 Frc consts  --      0.6030                 0.9713                 0.3686
 IR Inten    --     10.1611                19.4960                27.1602

                     16                     17                     18
                      A                      A                      A
 Frequencies --    486.9556               497.3220               539.6065
 Red. masses --     10.2898                 9.0227                 5.3577
 Frc consts  --      1.4376                 1.3148                 0.9191
 IR Inten    --     87.0891                68.5993                 2.3753

                     19                     20                     21
                      A                      A                      A
 Frequencies --    550.8223               580.2837               611.9941
 Red. masses --      6.8970                 4.4680                 5.3716
 Frc consts  --      1.2329                 0.8864                 1.1854
 IR Inten    --      4.9525                38.2498                15.9231

                     22                     23                     24
                      A                      A                      A
 Frequencies --    677.0795               718.6786               812.7261
 Red. masses --      1.9716                 5.2918                11.6776
 Frc consts  --      0.5325                 1.6103                 4.5446
 IR Inten    --    819.6017                 4.2248               105.3939

                     25                     26                     27
                      A                      A                      A
 Frequencies --    849.9375               898.7611               902.7824
 Red. masses --      9.8366                 1.5101                 3.1722
 Frc consts  --      4.1867                 0.7187                 1.5233
 IR Inten    --    195.8175                86.8439                40.0102

                     28                     29                     30
                      A                      A                      A
 Frequencies --    917.3130              1055.1391              1119.5705
 Red. masses --      1.3562                 7.4818                 1.2618
 Frc consts  --      0.6724                 4.9077                 0.9318
 IR Inten    --      1.1113                25.5033                10.1314

                     31                     32                     33
                      A                      A                      A
 Frequencies --   1153.6457              1175.0194              1181.9035
 Red. masses --      4.7768                 3.1525                 3.3445
 Frc consts  --      3.7457                 2.5645                 2.7526
 IR Inten    --    378.5029                52.4713                49.5739

                     34                     35                     36
                      A                      A                      A
 Frequencies --   1238.7043              1297.8849              1335.3294
 Red. masses --      1.5777                10.6272                10.4702
 Frc consts  --      1.4263                10.5473                10.9997
 IR Inten    --     31.8682                 7.6094               473.6084

                     37                     38                     39
                      A                      A                      A
 Frequencies --   1421.6220              1460.1499              1589.5926
 Red. masses --      3.1690                 3.2009                 1.1046
 Frc consts  --      3.7735                 4.0209                 1.6445
 IR Inten    --    191.5213                20.1429               130.0836

                     40                     41                     42
                      A                      A                      A
 Frequencies --   1623.4576              1644.2024              3261.0264
 Red. masses --      9.1181                 6.9038                 1.0953
 Frc consts  --     14.1591                10.9964                 6.8627
 IR Inten    --    177.9107               284.0229                16.2459

                     43                     44                     45
                      A                      A                      A
 Frequencies --   3265.4163              3508.9250              3614.0982
 Red. masses --      1.0945                 1.0477                 1.0999
 Frc consts  --      6.8760                 7.6004                 8.4649
 IR Inten    --     15.3727               145.1775               172.9159

 - Thermochemistry -
 -------------------
 Temperature   298.150 Kelvin.  Pressure   1.00000 Atm.
 Atom     1 has atomic number  6 and mass  12.00000

 Molecular mass:   258.90283 amu.
 Principal axes and moments of inertia in atomic units:
                           1         2         3
     Eigenvalues --  2579.987894704.846016902.27760
           X            0.99994  -0.00773  -0.00727
           Y            0.00776   0.99996   0.00426
           Z            0.00724  -0.00432   0.99996
 This molecule is an asymmetric top.
 Rotational symmetry number  1.
 Warning -- assumption of classical behavior for rotation
           may cause significant error
 Rotational temperatures (Kelvin)      0.03357     0.01841     0.01255
 Rotational constants (GHZ):           0.69952     0.38359     0.26147
 Zero-point vibrational energy     261596.7 (Joules/Mol)
                                   62.52312 (Kcal/Mol)
 Warning -- explicit consideration of  21 degrees of freedom as
           vibrations may cause significant error
 Vibrational temperatures:     42.56   108.85   206.34   250.06   267.92
          (Kelvin)            300.54   302.66   317.34   356.97   376.78
                              453.48   548.96   556.40   641.63   658.59
                              700.62   715.54   776.37   792.51   834.90
                              880.52   974.17  1034.02  1169.33  1222.87
                             1293.12  1298.90  1319.81  1518.11  1610.81
                             1659.84  1690.59  1700.50  1782.22  1867.37
                             1921.24  2045.40  2100.83  2287.07  2335.79
                             2365.64  4691.89  4698.21  5048.56  5199.88

 Zero-point correction=                           0.099637 (Hartree/Particle)
 Thermal correction to Energy=                    0.111989
 Thermal correction to Enthalpy=                  0.112934
 Thermal correction to Gibbs Free Energy=         0.059619
 Sum of electronic and zero-point Energies=          -2214.572329
 Sum of electronic and thermal Energies=             -2214.559977
 Sum of electronic and thermal Enthalpies=           -2214.559033
 Sum of electronic and thermal Free Energies=        -2214.612348

                     E (Thermal)             CV                S
                      KCal/Mol        Cal/Mol-Kelvin    Cal/Mol-Kelvin
 Total                   70.274             45.205            112.211
 Electronic               0.000              0.000              0.000
 Translational            0.889              2.981             42.554
 Rotational               0.889              2.981             32.793
 Vibrational             68.497             39.243             36.863
 Vibration     1          0.593              1.984              5.857
 Vibration     2          0.599              1.965              4.001
 Vibration     3          0.616              1.910              2.758
 Vibration     4          0.627              1.875              2.394
 Vibration     5          0.632              1.859              2.265
 Vibration     6          0.642              1.827              2.053
 Vibration     7          0.643              1.825              2.041
 Vibration     8          0.647              1.810              1.954
 Vibration     9          0.662              1.766              1.744
 Vibration    10          0.669              1.743              1.649
 Vibration    11          0.703              1.645              1.335
 Vibration    12          0.751              1.510              1.033
 Vibration    13          0.755              1.499              1.013
 Vibration    14          0.805              1.370              0.808
 Vibration    15          0.816              1.344              0.773
 Vibration    16          0.843              1.279              0.692
 Vibration    17          0.853              1.256              0.665
 Vibration    18          0.895              1.162              0.566
 Vibration    19          0.906              1.138              0.542
 Vibration    20          0.937              1.074              0.485
 Vibration    21          0.971              1.006              0.429

 Optimization completed.
    -- Stationary point found.
 Normal termination of Gaussian 16 at Thu May 19 14:52:49 2022.
