 Gaussian 16, Revision C.01,
 Gaussian 16:  ES64L-G16RevC.01  3-Jul-2019

 -----------------------------------------------------
 #m062X/gen 6D OPT Freq=noraman SCRF=(SMD,Solvent=h2o)
 -----------------------------------------------------

 ----------------
 HA.32.smd.a2.smd
 ----------------
 Symbolic Z-matrix:
 Charge =  0 Multiplicity = 1

 SCF Done:  E(RM062X) =  -1992.82583789     A.U. after   16 cycles
 SCF Done:  E(RM062X) =  -1992.82672550     A.U. after   14 cycles
 SCF Done:  E(RM062X) =  -1992.82700641     A.U. after   13 cycles
 SCF Done:  E(RM062X) =  -1992.82707152     A.U. after   12 cycles
 SCF Done:  E(RM062X) =  -1992.82711005     A.U. after   12 cycles
 SCF Done:  E(RM062X) =  -1992.82712516     A.U. after   12 cycles
 SCF Done:  E(RM062X) =  -1992.82713018     A.U. after   11 cycles
 SCF Done:  E(RM062X) =  -1992.82713391     A.U. after   11 cycles
 SCF Done:  E(RM062X) =  -1992.82713444     A.U. after   10 cycles
 SCF Done:  E(RM062X) =  -1992.82713434     A.U. after    9 cycles
 SCF Done:  E(RM062X) =  -1992.82713429     A.U. after    9 cycles
 Optimization completed.
    -- Stationary point found.
 Normal termination of Gaussian 16 at Fri Jul  1 00:30:02 2022.

 ------------------------------------------------------------------
 #N Geom=AllCheck Guess=TCheck SCRF=Check GenChk RM062X/ChkBas Freq
 ------------------------------------------------------------------

 Structure from the checkpoint file:  "/jobfs/48971763.gadi-pbs/Gau-3812130.chk"
 ----------------
 HA.32.smd.a2.smd
 ----------------
 Charge =  0 Multiplicity = 1

                         Standard orientation:
 ---------------------------------------------------------------------
 Center     Atomic      Atomic             Coordinates (Angstroms)
 Number     Number       Type             X           Y           Z
 ---------------------------------------------------------------------
      1          6           0        1.215755   -0.098258    0.046222
      2          6           0        1.204328    1.310843    0.014792
      3         17           0        2.688224    2.218208   -0.005438
      4          6           0        0.026262    2.019288   -0.021289
      5          1           0        0.039655    3.104253   -0.053095
      6          6           0       -1.218242    1.347689   -0.018118
      7          6           0       -1.187655   -0.065652    0.004844
      8         16           0       -2.690211   -0.993215    0.002882
      9          6           0        0.005238   -0.774897    0.029786
     10          1           0       -0.002792   -1.861778    0.033816
     11         16           0        2.705488   -1.064543    0.119779
     12          8           0        3.521232   -0.589222    1.234697
     13          8           0        2.288387   -2.464320    0.086715
     14          7           0        3.593224   -0.817484   -1.244267
     15          1           0        3.978199    0.126370   -1.300739
     16          1           0        3.076456   -1.059282   -2.092291
     17          7           0       -2.373476    2.048302   -0.087703
     18          6           0       -3.655760    1.413663    0.130208
     19          7           0       -3.685295    0.169444   -0.651753
     20          8           0       -2.609011   -2.108046   -0.940911
     21          8           0       -3.060803   -1.333094    1.382535
     22          1           0       -4.441951    2.060033   -0.253434
     23          1           0       -4.635887   -0.199922   -0.750609
     24          1           0       -2.325399    3.056464    0.011854
     25          1           0       -3.831680    1.227998    1.197462
 ---------------------------------------------------------------------

 SCF Done:  E(RM062X) =  -1992.82713429     A.U. after    1 cycles

 The electronic state is 1-A.
 Alpha  occ. eigenvalues -- -102.69842 -90.18962 -90.18717 -19.66838 -19.66501
 Alpha  occ. eigenvalues --  -19.66497 -19.66414 -14.81530 -14.80922 -14.80604
 Alpha  occ. eigenvalues --  -10.65845 -10.65075 -10.63712 -10.61169 -10.61044
 Alpha  occ. eigenvalues --  -10.60857 -10.58682  -9.84491  -8.49863  -8.49778
 Alpha  occ. eigenvalues --   -7.56900  -7.56231  -7.56199  -6.42063  -6.42053
 Alpha  occ. eigenvalues --   -6.41968  -6.41952  -6.41934  -6.41852  -1.26627
 Alpha  occ. eigenvalues --   -1.26571  -1.15050  -1.14661  -1.11206  -1.04537
 Alpha  occ. eigenvalues --   -1.03661  -1.02160  -0.97208  -0.90093  -0.88358
 Alpha  occ. eigenvalues --   -0.81582  -0.77912  -0.76510  -0.73154  -0.68623
 Alpha  occ. eigenvalues --   -0.65543  -0.65075  -0.62704  -0.62077  -0.60608
 Alpha  occ. eigenvalues --   -0.59402  -0.59349  -0.57302  -0.56433  -0.54661
 Alpha  occ. eigenvalues --   -0.53935  -0.53644  -0.52453  -0.51407  -0.49760
 Alpha  occ. eigenvalues --   -0.47390  -0.45231  -0.44696  -0.44504  -0.42792
 Alpha  occ. eigenvalues --   -0.42494  -0.41908  -0.41553  -0.41235  -0.40255
 Alpha  occ. eigenvalues --   -0.40035  -0.39093  -0.38061  -0.36412  -0.33406
 Alpha  occ. eigenvalues --   -0.28722
 Alpha virt. eigenvalues --   -0.02717  -0.01710   0.00664   0.01772   0.02149
 Alpha virt. eigenvalues --    0.03059   0.03270   0.03748   0.04281   0.04718
 Alpha virt. eigenvalues --    0.05065   0.06034   0.06398   0.06827   0.07372

 Mulliken charges:
               1
     1  C   -2.407626
     2  C    1.291357
     3  Cl   0.247338
     4  C   -1.411023
     5  H    0.298230
     6  C    0.892537
     7  C    0.103928
     8  S    1.847694
     9  C   -0.402885
    10  H    0.320889
    11  S    1.461000
    12  O   -0.525509
    13  O   -0.653253
    14  N   -0.965562
    15  H    0.492166
    16  H    0.508661
    17  N   -0.597353
    18  C   -0.211661
    19  N   -0.797020
    20  O   -0.606272
    21  O   -0.527194
    22  H    0.292091
    23  H    0.544533
    24  H    0.524945
    25  H    0.279990
 Sum of Mulliken charges =   0.00000

 Dipole moment (field-independent basis, Debye):
    X=             -7.1533    Y=             13.7962    Z=             -5.1534  Tot=             16.3726
 Quadrupole moment (field-independent basis, Debye-Ang):
   XX=           -109.8593   YY=           -121.5039   ZZ=           -126.3437
   XY=            -14.9905   XZ=            -14.6433   YZ=              3.6322

  Exact polarizability:     302.985      -9.704     244.595      -2.066       1.656     159.611
 Approx polarizability:     245.885      -4.063     218.943       0.581       1.933     151.558

                      1                      2                      3
                      A                      A                      A
 Frequencies --     37.0141                42.0386                78.1096
 Red. masses --      7.8888                 6.6366                 7.2929
 Frc consts  --      0.0064                 0.0069                 0.0262
 IR Inten    --      5.4967                12.2491                 8.0732

                      4                      5                      6
                      A                      A                      A
 Frequencies --    100.9368               132.8832               175.6507
 Red. masses --      7.6055                 9.0709                10.6152
 Frc consts  --      0.0457                 0.0944                 0.1930
 IR Inten    --     12.9985                 4.3011                 3.5121

                      7                      8                      9
                      A                      A                      A
 Frequencies --    194.4565               203.4084               241.0136
 Red. masses --     10.2666                 5.9943                 4.4980
 Frc consts  --      0.2287                 0.1461                 0.1539
 IR Inten    --      3.4145                24.0822                39.9898

                     10                     11                     12
                      A                      A                      A
 Frequencies --    247.1768               253.6494               280.8290
 Red. masses --      4.8171                 6.3391                 1.8635
 Frc consts  --      0.1734                 0.2403                 0.0866
 IR Inten    --     28.3906                11.5948                30.7936

                     13                     14                     15
                      A                      A                      A
 Frequencies --    307.3731               337.8104               343.1512
 Red. masses --      4.5578                 2.4561                 4.1722
 Frc consts  --      0.2537                 0.1651                 0.2895
 IR Inten    --     30.3075                20.8875                 3.7132

                     16                     17                     18
                      A                      A                      A
 Frequencies --    376.0939               388.6136               428.2145
 Red. masses --      2.1690                 3.9317                 3.8154
 Frc consts  --      0.1808                 0.3498                 0.4122
 IR Inten    --    179.8260                13.4916                12.7197

                     19                     20                     21
                      A                      A                      A
 Frequencies --    447.6411               476.9732               491.6432
 Red. masses --      3.0947                 5.1677                 4.1392
 Frc consts  --      0.3654                 0.6927                 0.5895
 IR Inten    --     99.4419                60.0228                26.2966

                     22                     23                     24
                      A                      A                      A
 Frequencies --    496.4677               521.4434               527.9283
 Red. masses --      5.2734                 6.7118                 7.4787
 Frc consts  --      0.7658                 1.0752                 1.2281
 IR Inten    --    169.3053                42.5264               101.9497

                     25                     26                     27
                      A                      A                      A
 Frequencies --    541.4131               581.9490               614.7605
 Red. masses --      8.4141                 7.5223                 2.4704
 Frc consts  --      1.4532                 1.5010                 0.5501
 IR Inten    --     43.8126                62.7657               224.9492

                     28                     29                     30
                      A                      A                      A
 Frequencies --    650.0483               668.4717               717.0544
 Red. masses --      8.7301                 4.9359                 4.3103
 Frc consts  --      2.1735                 1.2995                 1.3058
 IR Inten    --     38.6732                37.9021                10.0928

                     31                     32                     33
                      A                      A                      A
 Frequencies --    720.9132               724.6993               804.2312
 Red. masses --      3.6748                 3.1124                 5.9774
 Frc consts  --      1.1252                 0.9631                 2.2778
 IR Inten    --    316.5744               525.0144                99.9864

                     34                     35                     36
                      A                      A                      A
 Frequencies --    875.6044               880.0466               895.2381
 Red. masses --      1.6706                 2.1964                 2.7336
 Frc consts  --      0.7546                 1.0022                 1.2908
 IR Inten    --     80.3484                88.3598                34.9378

                     37                     38                     39
                      A                      A                      A
 Frequencies --    941.1648               946.9637              1032.4472
 Red. masses --      4.0442                 1.5219                 3.3460
 Frc consts  --      2.1107                 0.8041                 2.1014
 IR Inten    --    170.7343                37.2229                99.5772

                     40                     41                     42
                      A                      A                      A
 Frequencies --   1077.2501              1116.3319              1130.2695
 Red. masses --      4.1026                 2.5443                 1.3305
 Frc consts  --      2.8051                 1.8681                 1.0014
 IR Inten    --    176.3272               131.9655                31.4883

                     43                     44                     45
                      A                      A                      A
 Frequencies --   1133.4992              1142.4458              1149.9875
 Red. masses --      7.2536                 3.2236                 2.6208
 Frc consts  --      5.4909                 2.4789                 2.0420
 IR Inten    --    223.0247                52.8245               372.9239

                     46                     47                     48
                      A                      A                      A
 Frequencies --   1175.2119              1266.4872              1269.7981
 Red. masses --      3.5140                 1.3495                18.7685
 Frc consts  --      2.8595                 1.2753                17.8299
 IR Inten    --    397.4756                59.3317               558.9050

                     49                     50                     51
                      A                      A                      A
 Frequencies --   1301.0489              1311.3574              1322.8651
 Red. masses --      1.3618                 9.9479                 1.4315
 Frc consts  --      1.3582                10.0791                 1.4760
 IR Inten    --     24.0801               531.6288                42.4500

                     52                     53                     54
                      A                      A                      A
 Frequencies --   1339.4855              1374.4736              1416.2970
 Red. masses --      1.8028                 3.4169                 2.4749
 Frc consts  --      1.9057                 3.8033                 2.9249
 IR Inten    --    151.4222                48.8476                41.3047

                     55                     56                     57
                      A                      A                      A
 Frequencies --   1446.8493              1506.3650              1529.1753
 Red. masses --      1.5835                 2.6931                 1.1261
 Frc consts  --      1.9530                 3.6005                 1.5514
 IR Inten    --    233.4285                30.2515                13.9468

                     58                     59                     60
                      A                      A                      A
 Frequencies --   1578.2029              1589.9018              1618.8141
 Red. masses --      3.3900                 1.1037                 6.2754
 Frc consts  --      4.9749                 1.6437                 9.6892
 IR Inten    --    436.3842               115.4368               161.3480

                     61                     62                     63
                      A                      A                      A
 Frequencies --   1668.5983              3088.3663              3223.3848
 Red. masses --      6.6763                 1.0712                 1.0973
 Frc consts  --     10.9518                 6.0197                 6.7173
 IR Inten    --    890.2211                54.5623                 0.4425

                     64                     65                     66
                      A                      A                      A
 Frequencies --   3245.3088              3248.5900              3494.7353
 Red. masses --      1.0919                 1.0939                 1.0491
 Frc consts  --      6.7755                 6.8017                 7.5489
 IR Inten    --     29.8291                 2.4143               143.7290

                     67                     68                     69
                      A                      A                      A
 Frequencies --   3497.7041              3598.7219              3622.0014
 Red. masses --      1.0763                 1.0987                 1.0792
 Frc consts  --      7.7582                 8.3836                 8.3417
 IR Inten    --    208.9703               156.7836               277.9410

 - Thermochemistry -
 -------------------
 Temperature   298.150 Kelvin.  Pressure   1.00000 Atm.
 Atom     1 has atomic number  6 and mass  12.00000

 Molecular mass:   296.96448 amu.
 Principal axes and moments of inertia in atomic units:
                           1         2         3
     Eigenvalues --  2742.491887614.837929601.93521
           X            0.99977  -0.02076  -0.00601
           Y            0.02079   0.99977   0.00550
           Z            0.00589  -0.00562   0.99997
 This molecule is an asymmetric top.
 Rotational symmetry number  1.
 Warning -- assumption of classical behavior for rotation
           may cause significant error
 Rotational temperatures (Kelvin)      0.03158     0.01137     0.00902
 Rotational constants (GHZ):           0.65807     0.23700     0.18796
 Zero-point vibrational energy     449850.0 (Joules/Mol)
                                  107.51674 (Kcal/Mol)
 Warning -- explicit consideration of  27 degrees of freedom as
           vibrations may cause significant error
 Vibrational temperatures:     53.25    60.48   112.38   145.23   191.19
          (Kelvin)            252.72   279.78   292.66   346.76   355.63
                              364.94   404.05   442.24   486.03   493.72
                              541.12   559.13   616.11   644.06   686.26
                              707.36   714.31   750.24   759.57   778.97
                              837.29   884.50   935.27   961.78  1031.68
                             1037.23  1042.68  1157.11  1259.80  1266.19
                             1288.05  1354.13  1362.47  1485.46  1549.92
                             1606.15  1626.21  1630.85  1643.72  1654.58
                             1690.87  1822.19  1826.96  1871.92  1886.75
                             1903.31  1927.22  1977.56  2037.74  2081.69
                             2167.32  2200.14  2270.68  2287.51  2329.11
                             2400.74  4443.47  4637.73  4669.28  4674.00
                             5028.14  5032.42  5177.76  5211.25

 Zero-point correction=                           0.171339 (Hartree/Particle)
 Thermal correction to Energy=                    0.186908
 Thermal correction to Enthalpy=                  0.187853
 Thermal correction to Gibbs Free Energy=         0.127818
 Sum of electronic and zero-point Energies=          -1992.655795
 Sum of electronic and thermal Energies=             -1992.640226
 Sum of electronic and thermal Enthalpies=           -1992.639282
 Sum of electronic and thermal Free Energies=        -1992.699317

                     E (Thermal)             CV                S
                      KCal/Mol        Cal/Mol-Kelvin    Cal/Mol-Kelvin
 Total                  117.287             59.353            126.354
 Electronic               0.000              0.000              0.000
 Translational            0.889              2.981             42.962
 Rotational               0.889              2.981             33.661
 Vibrational            115.509             53.392             49.731
 Vibration     1          0.594              1.982              5.413
 Vibration     2          0.595              1.980              5.161
 Vibration     3          0.599              1.964              3.938
 Vibration     4          0.604              1.948              3.436
 Vibration     5          0.613              1.920              2.904
 Vibration     6          0.628              1.872              2.374
 Vibration     7          0.635              1.848              2.185
 Vibration     8          0.639              1.835              2.102
 Vibration     9          0.658              1.778              1.795
 Vibration    10          0.661              1.767              1.751
 Vibration    11          0.665              1.757              1.705
 Vibration    12          0.681              1.709              1.529
 Vibration    13          0.697              1.660              1.376
 Vibration    14          0.718              1.600              1.222
 Vibration    15          0.722              1.589              1.197
 Vibration    16          0.747              1.521              1.055
 Vibration    17          0.757              1.495              1.005
 Vibration    18          0.790              1.409              0.865
 Vibration    19          0.807              1.366              0.803
 Vibration    20          0.834              1.301              0.718
 Vibration    21          0.847              1.269              0.679
 Vibration    22          0.852              1.258              0.667
 Vibration    23          0.876              1.203              0.607
 Vibration    24          0.883              1.188              0.592
 Vibration    25          0.896              1.159              0.562
 Vibration    26          0.939              1.070              0.482
 Vibration    27          0.974              1.001              0.425

 Optimization completed.
    -- Stationary point found.
 Normal termination of Gaussian 16 at Fri Jul  1 00:40:16 2022.
