 Gaussian 16, Revision C.01,
 Gaussian 16:  ES64L-G16RevC.01  3-Jul-2019

 -----------------------------------------------------
 #m062X/gen 6D OPT Freq=noraman SCRF=(SMD,Solvent=h2o)
 -----------------------------------------------------

 ----------------
 HA.30.smd.a1.smd
 ----------------
 Symbolic Z-matrix:
 Charge =  0 Multiplicity = 1

 SCF Done:  E(RM062X) =  -1870.21395933     A.U. after   16 cycles
 Optimization completed.
    -- Stationary point found.
 Normal termination of Gaussian 16 at Thu Jun 30 22:35:02 2022.

 ------------------------------------------------------------------
 #N Geom=AllCheck Guess=TCheck SCRF=Check GenChk RM062X/ChkBas Freq
 ------------------------------------------------------------------

 Structure from the checkpoint file:  "/jobfs/48967307.gadi-pbs/Gau-3399509.chk"
 ----------------
 HA.30.smd.a1.smd
 ----------------
 Charge =  0 Multiplicity = 1

                         Standard orientation:
 ---------------------------------------------------------------------
 Center     Atomic      Atomic             Coordinates (Angstroms)
 Number     Number       Type             X           Y           Z
 ---------------------------------------------------------------------
      1          6           0        0.907493   -0.438737   -0.042410
      2          6           0        1.070205    0.969171   -0.013099
      3          6           0        2.425300    1.644569   -0.043460
      4          6           0       -0.027112    1.797862    0.016818
      5          1           0        0.096376    2.876015    0.029719
      6          6           0       -1.347298    1.280751    0.040570
      7          6           0       -1.479656   -0.123844    0.014922
      8         16           0       -3.096847   -0.837081   -0.018063
      9          6           0       -0.374148   -0.964732   -0.031078
     10          1           0       -0.515630   -2.040956   -0.072916
     11         16           0        2.238810   -1.626852   -0.086825
     12          8           0        1.630179   -2.917014   -0.404256
     13          8           0        3.298609   -1.106139   -0.944485
     14          7           0        2.883594   -1.800500    1.419492
     15          1           0        2.196673   -2.160805    2.084863
     16          1           0        3.311088   -0.940347    1.765362
     17          7           0       -2.407415    2.116792    0.046902
     18          6           0       -3.768190    1.649522    0.249625
     19          7           0       -4.039364    0.435585   -0.516534
     20          8           0       -3.157885   -1.872804   -1.045654
     21          8           0       -3.505581   -1.180140    1.342537
     22          1           0       -2.232929    3.115444    0.083664
     23          9           0        2.350077    2.926892    0.339515
     24          9           0        2.966343    1.642436   -1.270540
     25          9           0        3.306048    1.052922    0.787118
     26          1           0       -3.958661    1.432347    1.304628
     27          1           0       -4.455581    2.424723   -0.081146
     28          1           0       -3.934812    0.574513   -1.526269
 ---------------------------------------------------------------------

 SCF Done:  E(RM062X) =  -1870.21395933     A.U. after    1 cycles

 The electronic state is 1-A.
 Alpha  occ. eigenvalues --  -90.18918 -90.18917 -25.31995 -25.31729 -25.31392
 Alpha  occ. eigenvalues --  -19.67145 -19.66843 -19.66457 -19.66428 -14.81721
 Alpha  occ. eigenvalues --  -14.81038 -14.80479 -10.83337 -10.65114 -10.63791
 Alpha  occ. eigenvalues --  -10.62399 -10.61500 -10.61123 -10.60747 -10.59235
 Alpha  occ. eigenvalues --   -8.49931  -8.49823  -6.42137  -6.42103  -6.42025
 Alpha  occ. eigenvalues --   -6.42008  -6.41998  -6.41911  -1.48568  -1.39282
 Alpha  occ. eigenvalues --   -1.38932  -1.27047  -1.26644  -1.15339  -1.15125
 Alpha  occ. eigenvalues --   -1.11309  -1.04403  -1.03493  -1.00548  -0.93079
 Alpha  occ. eigenvalues --   -0.89844  -0.84547  -0.81690  -0.78367  -0.76643
 Alpha  occ. eigenvalues --   -0.73691  -0.71578  -0.70901  -0.70483  -0.68357
 Alpha  occ. eigenvalues --   -0.66196  -0.63883  -0.62856  -0.61880  -0.61041
 Alpha  occ. eigenvalues --   -0.60288  -0.58814  -0.58615  -0.57384  -0.57280
 Alpha  occ. eigenvalues --   -0.55364  -0.54888  -0.54794  -0.54335  -0.53801
 Alpha  occ. eigenvalues --   -0.52715  -0.52411  -0.52248  -0.49847  -0.48499
 Alpha  occ. eigenvalues --   -0.46972  -0.44260  -0.44022  -0.43454  -0.42859
 Alpha  occ. eigenvalues --   -0.42355  -0.41418  -0.40787  -0.40480  -0.40142
 Alpha  occ. eigenvalues --   -0.38724  -0.37226  -0.35384  -0.28823
 Alpha virt. eigenvalues --   -0.03749  -0.01890   0.00741   0.02070   0.02421
 Alpha virt. eigenvalues --    0.02859   0.03789   0.03898   0.04279   0.04416
 Alpha virt. eigenvalues --    0.05516   0.06129   0.06360   0.06792   0.07229

 Mulliken charges:
               1
     1  C   -1.628245
     2  C    0.468316
     3  C    1.712586
     4  C   -1.461494
     5  H    0.301987
     6  C    0.021844
     7  C    0.274337
     8  S    1.932709
     9  C   -0.299448
    10  H    0.318384
    11  S    1.646698
    12  O   -0.644248
    13  O   -0.586156
    14  N   -1.054237
    15  H    0.509872
    16  H    0.513691
    17  N   -0.536454
    18  C   -0.311202
    19  N   -0.828494
    20  O   -0.578431
    21  O   -0.549357
    22  H    0.530061
    23  F   -0.323012
    24  F   -0.242543
    25  F   -0.322042
    26  H    0.294908
    27  H    0.295601
    28  H    0.544368
 Sum of Mulliken charges =   0.00000

 Dipole moment (field-independent basis, Debye):
    X=             -5.5295    Y=             13.6893    Z=              4.2088  Tot=             15.3521
 Quadrupole moment (field-independent basis, Debye-Ang):
   XX=           -149.0002   YY=           -129.8332   ZZ=           -127.5459
   XY=            -26.3973   XZ=             21.0577   YZ=             -8.6118

  Exact polarizability:     289.778     -25.948     252.209      -1.786       1.029     166.165
 Approx polarizability:     236.846     -15.709     224.279      -2.859       1.343     157.623

                      1                      2                      3
                      A                      A                      A
 Frequencies --     33.0391                43.9670                68.3930
 Red. masses --      8.2169                 7.5739                 8.6040
 Frc consts  --      0.0053                 0.0086                 0.0237
 IR Inten    --     12.3494                 4.4126                 5.3065

                      4                      5                      6
                      A                      A                      A
 Frequencies --    102.6840               116.4960               130.6636
 Red. masses --      8.6762                 9.3893                10.5374
 Frc consts  --      0.0539                 0.0751                 0.1060
 IR Inten    --      4.8042                 2.5975                14.9960

                      7                      8                      9
                      A                      A                      A
 Frequencies --    149.5471               166.1498               199.3232
 Red. masses --      8.7297                13.6158                 6.5112
 Frc consts  --      0.1150                 0.2215                 0.1524
 IR Inten    --      7.6720                 4.8617                 3.0685

                     10                     11                     12
                      A                      A                      A
 Frequencies --    221.2437               232.0656               249.2555
 Red. masses --     12.9155                 9.6296                 3.0337
 Frc consts  --      0.3725                 0.3055                 0.1110
 IR Inten    --      2.2568                 9.9397                35.2591

                     13                     14                     15
                      A                      A                      A
 Frequencies --    286.0632               296.0687               307.5783
 Red. masses --      4.7359                 3.8886                 3.6395
 Frc consts  --      0.2283                 0.2008                 0.2029
 IR Inten    --     36.8990                33.5890                25.2319

                     16                     17                     18
                      A                      A                      A
 Frequencies --    316.7813               354.8827               362.9820
 Red. masses --      4.5961                 2.2124                 3.6204
 Frc consts  --      0.2717                 0.1642                 0.2810
 IR Inten    --     30.3644                18.5229                31.7868

                     19                     20                     21
                      A                      A                      A
 Frequencies --    371.9296               406.7553               438.5537
 Red. masses --      1.7486                 5.1909                 3.9781
 Frc consts  --      0.1425                 0.5060                 0.4508
 IR Inten    --    115.0563                29.1313                33.2997

                     22                     23                     24
                      A                      A                      A
 Frequencies --    449.4340               485.6618               491.3607
 Red. masses --      3.5565                 5.8211                 4.3842
 Frc consts  --      0.4233                 0.8090                 0.6237
 IR Inten    --     22.2345                 8.4542                 3.8789

                     25                     26                     27
                      A                      A                      A
 Frequencies --    504.9003               505.7416               523.5199
 Red. masses --      6.4674                 9.1564                 9.1514
 Frc consts  --      0.9714                 1.3799                 1.4778
 IR Inten    --     20.3497                73.7422                85.4493

                     28                     29                     30
                      A                      A                      A
 Frequencies --    528.1764               562.8528               575.7442
 Red. masses --     10.2073                 9.6019                11.8289
 Frc consts  --      1.6777                 1.7922                 2.3102
 IR Inten    --    106.8715                47.6964                98.5313

                     31                     32                     33
                      A                      A                      A
 Frequencies --    599.5405               663.4638               693.4988
 Red. masses --      6.4377                 6.2619                 2.8588
 Frc consts  --      1.3634                 1.6240                 0.8101
 IR Inten    --      7.5855                21.1651               122.9346

                     34                     35                     36
                      A                      A                      A
 Frequencies --    707.4104               723.2946               741.4535
 Red. masses --      9.4484                 3.2418                 3.8605
 Frc consts  --      2.7858                 0.9992                 1.2504
 IR Inten    --      2.9643               487.2583                 3.5063

                     37                     38                     39
                      A                      A                      A
 Frequencies --    748.5714               764.2875               769.8688
 Red. masses --      3.4894                 6.0689                 4.4495
 Frc consts  --      1.1520                 2.0887                 1.5538
 IR Inten    --    199.3799               715.0407                 3.3955

                     40                     41                     42
                      A                      A                      A
 Frequencies --    881.6278               898.6781               913.8660
 Red. masses --      2.4548                 2.4392                 1.5488
 Frc consts  --      1.1242                 1.1606                 0.7621
 IR Inten    --     41.2463                28.3892                63.5637

                     43                     44                     45
                      A                      A                      A
 Frequencies --    944.5345               950.0771              1049.5316
 Red. masses --      1.7937                 3.2599                 3.2113
 Frc consts  --      0.9428                 1.7337                 2.0841
 IR Inten    --     75.8621                87.0024               109.0639

                     46                     47                     48
                      A                      A                      A
 Frequencies --   1089.0123              1102.5144              1128.1471
 Red. masses --      5.4037                 2.5322                 2.4397
 Frc consts  --      3.7758                 1.8135                 1.8295
 IR Inten    --    142.9387                62.4706               108.0378

                     49                     50                     51
                      A                      A                      A
 Frequencies --   1130.4187              1138.1879              1154.4848
 Red. masses --      1.8365                 3.8339                 3.3600
 Frc consts  --      1.3827                 2.9263                 2.6385
 IR Inten    --     73.0949               118.1098               164.1292

                     52                     53                     54
                      A                      A                      A
 Frequencies --   1159.2922              1186.1325              1205.7649
 Red. masses --      8.6068                 9.9669                 9.1460
 Frc consts  --      6.8152                 8.2618                 7.8344
 IR Inten    --    836.6594               482.7799               484.8610

                     55                     56                     57
                      A                      A                      A
 Frequencies --   1283.2059              1298.2929              1312.9071
 Red. masses --      1.7979                 2.7397                 1.8875
 Frc consts  --      1.7443                 2.7208                 1.9170
 IR Inten    --    131.7407               288.0193               237.5922

                     58                     59                     60
                      A                      A                      A
 Frequencies --   1317.7855              1318.6660              1348.2819
 Red. masses --      1.5601                 7.4520                 5.2078
 Frc consts  --      1.5962                 7.6347                 5.5778
 IR Inten    --    183.3978               385.4453               274.7253

                     61                     62                     63
                      A                      A                      A
 Frequencies --   1350.7125              1411.3291              1437.3363
 Red. masses --      3.1606                 1.6240                 2.1728
 Frc consts  --      3.3974                 1.9059                 2.6447
 IR Inten    --    222.9046               122.2779                31.7017

                     64                     65                     66
                      A                      A                      A
 Frequencies --   1446.5930              1510.5106              1541.4605
 Red. masses --      1.4003                 1.0997                 3.0760
 Frc consts  --      1.7265                 1.4783                 4.3063
 IR Inten    --     85.9387                 4.5064               100.5008

                     67                     68                     69
                      A                      A                      A
 Frequencies --   1583.3265              1596.3378              1627.1074
 Red. masses --      3.2854                 1.1058                 6.4763
 Frc consts  --      4.8526                 1.6603                10.1021
 IR Inten    --    633.4169               111.9636               158.2675

                     70                     71                     72
                      A                      A                      A
 Frequencies --   1687.7731              3135.3663              3228.3190
 Red. masses --      6.5160                 1.0684                 1.1020
 Frc consts  --     10.9361                 6.1879                 6.7667
 IR Inten    --    426.4073                24.7892                 0.5467

                     73                     74                     75
                      A                      A                      A
 Frequencies --   3245.2347              3261.0740              3500.7986
 Red. masses --      1.0924                 1.0920                 1.0487
 Frc consts  --      6.7783                 6.8422                 7.5728
 IR Inten    --     23.4033                 9.9208               147.0760

                     76                     77                     78
                      A                      A                      A
 Frequencies --   3509.1716              3603.1524              3614.7154
 Red. masses --      1.0758                 1.0986                 1.0795
 Frc consts  --      7.8052                 8.4032                 8.3101
 IR Inten    --    142.9850               174.8007               300.9055

 - Thermochemistry -
 -------------------
 Temperature   298.150 Kelvin.  Pressure   1.00000 Atm.
 Atom     1 has atomic number  6 and mass  12.00000

 Molecular mass:   330.99083 amu.
 Principal axes and moments of inertia in atomic units:
                           1         2         3
     Eigenvalues --  3651.631948874.95599**********
           X            0.99947  -0.03219   0.00543
           Y            0.03222   0.99946  -0.00668
           Z           -0.00521   0.00686   0.99996
 This molecule is an asymmetric top.
 Rotational symmetry number  1.
 Warning -- assumption of classical behavior for rotation
           may cause significant error
 Rotational temperatures (Kelvin)      0.02372     0.00976     0.00757
 Rotational constants (GHZ):           0.49423     0.20335     0.15778
 Zero-point vibrational energy     490438.6 (Joules/Mol)
                                  117.21764 (Kcal/Mol)
 Warning -- explicit consideration of  31 degrees of freedom as
           vibrations may cause significant error
 Vibrational temperatures:     47.54    63.26    98.40   147.74   167.61
          (Kelvin)            188.00   215.16   239.05   286.78   318.32
                              333.89   358.62   411.58   425.98   442.54
                              455.78   510.60   522.25   535.12   585.23
                              630.98   646.64   698.76   706.96   726.44
                              727.65   753.23   759.93   809.82   828.37
                              862.61   954.58   997.79  1017.81  1040.66
                             1066.79  1077.03  1099.64  1107.67  1268.47
                             1293.00  1314.85  1358.97  1366.95  1510.04
                             1566.85  1586.27  1623.15  1626.42  1637.60
                             1661.05  1667.96  1706.58  1734.83  1846.25
                             1867.95  1888.98  1896.00  1897.27  1939.88
                             1943.37  2030.59  2068.01  2081.32  2173.29
                             2217.82  2278.05  2296.77  2341.04  2428.33
                             4511.09  4644.83  4669.17  4691.96  5036.87
                             5048.92  5184.13  5200.77

 Zero-point correction=                           0.186798 (Hartree/Particle)
 Thermal correction to Energy=                    0.204407
 Thermal correction to Enthalpy=                  0.205351
 Thermal correction to Gibbs Free Energy=         0.141036
 Sum of electronic and zero-point Energies=          -1870.027161
 Sum of electronic and thermal Energies=             -1870.009552
 Sum of electronic and thermal Enthalpies=           -1870.008608
 Sum of electronic and thermal Free Energies=        -1870.072924

                     E (Thermal)             CV                S
                      KCal/Mol        Cal/Mol-Kelvin    Cal/Mol-Kelvin
 Total                  128.268             67.628            135.364
 Electronic               0.000              0.000              0.000
 Translational            0.889              2.981             43.286
 Rotational               0.889              2.981             34.271
 Vibrational            126.490             61.667             57.807
 Vibration     1          0.594              1.983              5.638
 Vibration     2          0.595              1.980              5.072
 Vibration     3          0.598              1.969              4.199
 Vibration     4          0.605              1.947              3.403
 Vibration     5          0.608              1.936              3.158
 Vibration     6          0.612              1.923              2.936
 Vibration     7          0.618              1.903              2.678
 Vibration     8          0.624              1.884              2.479
 Vibration     9          0.637              1.841              2.139
 Vibration    10          0.648              1.809              1.949
 Vibration    11          0.653              1.792              1.863
 Vibration    12          0.662              1.764              1.736
 Vibration    13          0.684              1.700              1.497
 Vibration    14          0.690              1.681              1.439
 Vibration    15          0.697              1.659              1.375
 Vibration    16          0.704              1.642              1.327
 Vibration    17          0.731              1.565              1.144
 Vibration    18          0.737              1.548              1.109
 Vibration    19          0.744              1.530              1.072
 Vibration    20          0.772              1.456              0.938
 Vibration    21          0.799              1.386              0.831
 Vibration    22          0.808              1.362              0.797
 Vibration    23          0.842              1.282              0.695
 Vibration    24          0.847              1.269              0.680
 Vibration    25          0.860              1.239              0.646
 Vibration    26          0.861              1.237              0.644
 Vibration    27          0.878              1.198              0.602
 Vibration    28          0.883              1.188              0.591
 Vibration    29          0.919              1.112              0.518
 Vibration    30          0.932              1.084              0.493
 Vibration    31          0.958              1.033              0.450

                           ! Non-Optimized Parameters !
 Normal termination of Gaussian 16 at Thu Jun 30 22:50:37 2022.
