 Gaussian 16, Revision C.01,
 Gaussian 16:  ES64L-G16RevC.01  3-Jul-2019

 -----------------------------------------------------
 #m062X/gen 6D OPT Freq=noraman SCRF=(SMD,Solvent=h2o)
 -----------------------------------------------------

 ------------------
 HA.33.smd.a1c3.smd
 ------------------
 Symbolic Z-matrix:
 Charge =  0 Multiplicity = 1

 SCF Done:  E(RM062X) =  -1705.29736550     A.U. after   16 cycles
 SCF Done:  E(RM062X) =  -1705.29835136     A.U. after   16 cycles
 SCF Done:  E(RM062X) =  -1705.29931619     A.U. after   15 cycles
 SCF Done:  E(RM062X) =  -1705.30087728     A.U. after   14 cycles
 SCF Done:  E(RM062X) =  -1705.30145147     A.U. after   14 cycles
 SCF Done:  E(RM062X) =  -1705.30161236     A.U. after   14 cycles
 SCF Done:  E(RM062X) =  -1705.30165863     A.U. after   12 cycles
 SCF Done:  E(RM062X) =  -1705.30168636     A.U. after   12 cycles
 SCF Done:  E(RM062X) =  -1705.30169276     A.U. after   11 cycles
 SCF Done:  E(RM062X) =  -1705.30169336     A.U. after   11 cycles
 SCF Done:  E(RM062X) =  -1705.30169370     A.U. after   11 cycles
 SCF Done:  E(RM062X) =  -1705.30169397     A.U. after   10 cycles
 Optimization completed.
    -- Stationary point found.
 Normal termination of Gaussian 16 at Fri Jul  1 09:53:58 2022.

 ------------------------------------------------------------------
 #N Geom=AllCheck Guess=TCheck SCRF=Check GenChk RM062X/ChkBas Freq
 ------------------------------------------------------------------

 Structure from the checkpoint file:  "/jobfs/49796510.gadi-pbs/Gau-3629979.chk"
 ------------------
 HA.33.smd.a1c3.smd
 ------------------
 Charge =  0 Multiplicity = 1

                         Standard orientation:
 ---------------------------------------------------------------------
 Center     Atomic      Atomic             Coordinates (Angstroms)
 Number     Number       Type             X           Y           Z
 ---------------------------------------------------------------------
      1          6           0       -2.372743    0.334839    0.012405
      2          6           0       -1.691028   -0.886250   -0.203919
      3          6           0       -2.386514   -2.229311   -0.260596
      4          6           0       -0.324286   -0.892203   -0.396702
      5          1           0        0.204419   -1.824528   -0.566443
      6          6           0        0.412235    0.309054   -0.365080
      7          6           0       -0.272459    1.517725   -0.152418
      8          6           0        0.471864    2.801137   -0.245917
      9          6           0       -1.650365    1.519761    0.031460
     10         16           0       -4.134897    0.491836    0.260862
     11          8           0       -4.448073    1.914104    0.136109
     12          8           0       -4.815194   -0.465879   -0.606336
     13          7           0       -4.525231    0.091363    1.811779
     14          1           0       -4.080829    0.715849    2.487281
     15          1           0       -4.325426   -0.885440    2.029224
     16          7           0        1.762447    0.328000   -0.581989
     17          6           0        2.500145    1.435322    0.011138
     18          7           0        1.811677    2.667088   -0.359854
     19          1           0        2.231752   -0.572939   -0.518556
     20          9           0       -1.522336   -3.243209   -0.106576
     21          9           0       -3.008598   -2.432813   -1.431859
     22          9           0       -3.307153   -2.369281    0.713529
     23          1           0        2.358045    3.525473   -0.359863
     24          6           0        3.939969    1.472017   -0.487603
     25          6           0        4.696519    0.227304   -0.090549
     26          6           0        5.155267    0.069458    1.223197
     27          1           0        4.991399    0.866887    1.945168
     28          6           0        5.823810   -1.091594    1.607321
     29          1           0        6.178329   -1.198090    2.628657
     30          6           0        6.042234   -2.113171    0.680231
     31          1           0        6.566208   -3.016873    0.977947
     32          6           0        5.589249   -1.965318   -0.630140
     33          1           0        5.757736   -2.753770   -1.358170
     34          6           0        4.919264   -0.801127   -1.011692
     35          1           0        4.570262   -0.685985   -2.035673
     36          1           0        2.496049    1.334149    1.107649
     37          1           0        4.414716    2.357157   -0.049541
     38          1           0        3.931254    1.589197   -1.576256
     39          8           0       -0.098653    3.897855   -0.286383
     40          1           0       -2.158635    2.467599    0.175448
 ---------------------------------------------------------------------

 SCF Done:  E(RM062X) =  -1705.30169397     A.U. after    1 cycles

 The electronic state is 1-A.
 Alpha  occ. eigenvalues --  -90.18727 -25.31853 -25.31580 -25.31260 -19.66297
 Alpha  occ. eigenvalues --  -19.66293 -19.63707 -14.80378 -14.80233 -14.79948
 Alpha  occ. eigenvalues --  -10.83150 -10.68116 -10.63927 -10.63448 -10.62011
 Alpha  occ. eigenvalues --  -10.61189 -10.59451 -10.58655 -10.58576 -10.56645
 Alpha  occ. eigenvalues --  -10.55809 -10.55556 -10.55543 -10.55471 -10.55449
 Alpha  occ. eigenvalues --  -10.55385  -8.49639  -6.41841  -6.41826  -6.41722
 Alpha  occ. eigenvalues --   -1.48413  -1.39125  -1.38776  -1.26463  -1.18177
 Alpha  occ. eigenvalues --   -1.14943  -1.10593  -1.03424  -1.03100  -0.99865
 Alpha  occ. eigenvalues --   -0.96794  -0.92269  -0.90265  -0.87346  -0.84417
 Alpha  occ. eigenvalues --   -0.83814  -0.82171  -0.77328  -0.76759  -0.73618
 Alpha  occ. eigenvalues --   -0.72576  -0.70755  -0.70109  -0.69813  -0.69091
 Alpha  occ. eigenvalues --   -0.67438  -0.66456  -0.63357  -0.62228  -0.61965
 Alpha  occ. eigenvalues --   -0.60941  -0.59847  -0.58952  -0.58678  -0.58277
 Alpha  occ. eigenvalues --   -0.57207  -0.55467  -0.55217  -0.55153  -0.54620
 Alpha  occ. eigenvalues --   -0.53157  -0.52840  -0.52485  -0.52426  -0.52137
 Alpha  occ. eigenvalues --   -0.51682  -0.50425  -0.49599  -0.48557  -0.48288
 Alpha  occ. eigenvalues --   -0.47201  -0.46918  -0.44730  -0.44160  -0.44047
 Alpha  occ. eigenvalues --   -0.43250  -0.42359  -0.41792  -0.40270  -0.40052
 Alpha  occ. eigenvalues --   -0.39695  -0.39225  -0.38464  -0.36054  -0.34691
 Alpha  occ. eigenvalues --   -0.34084  -0.31059  -0.30471  -0.28551
 Alpha virt. eigenvalues --   -0.04381  -0.01454   0.00985   0.01221   0.01639
 Alpha virt. eigenvalues --    0.01975   0.02546   0.02925   0.03457   0.03660
 Alpha virt. eigenvalues --    0.03964   0.04430   0.04516   0.04860   0.05241

 Mulliken charges:
               1
     1  C   -1.708455
     2  C    0.415151
     3  C    1.705106
     4  C   -1.459728
     5  H    0.296779
     6  C   -0.374455
     7  C    1.406649
     8  C    1.354772
     9  C   -0.814173
    10  S    1.574357
    11  O   -0.641368
    12  O   -0.603426
    13  N   -1.065201
    14  H    0.509180
    15  H    0.510993
    16  N   -0.458408
    17  C   -0.504650
    18  N   -0.579534
    19  H    0.492377
    20  F   -0.325235
    21  F   -0.245226
    22  F   -0.325457
    23  H    0.519057
    24  C   -0.497511
    25  C    0.052744
    26  C   -0.029449
    27  H    0.246470
    28  C   -0.268226
    29  H    0.246461
    30  C   -0.180186
    31  H    0.244604
    32  C   -0.313267
    33  H    0.246724
    34  C   -0.145727
    35  H    0.247746
    36  H    0.274524
    37  H    0.277166
    38  H    0.273581
    39  O   -0.661743
    40  H    0.306986
 Sum of Mulliken charges =  -0.00000

 Dipole moment (field-independent basis, Debye):
    X=             15.4751    Y=             -4.6384    Z=              5.7766  Tot=             17.1570
 Quadrupole moment (field-independent basis, Debye-Ang):
   XX=           -185.7528   YY=           -177.4801   ZZ=           -145.6568
   XY=             11.9456   XZ=            -16.0092   YZ=              3.5565

  Exact polarizability:     387.404     -24.269     358.903      -3.630      10.233     269.312
 Approx polarizability:     310.644     -20.801     312.553      -1.853      11.084     242.777

                      1                      2                      3
                      A                      A                      A
 Frequencies --     18.3069                28.9081                47.0718
 Red. masses --      8.7467                 5.3815                 4.9886
 Frc consts  --      0.0017                 0.0026                 0.0065
 IR Inten    --      2.1241                 1.0617                 0.7153

                      4                      5                      6
                      A                      A                      A
 Frequencies --     51.5711                60.6092                82.2870
 Red. masses --      5.8357                 7.2147                 6.3502
 Frc consts  --      0.0091                 0.0156                 0.0253
 IR Inten    --      2.8191                 5.6148                 4.7798

                      7                      8                      9
                      A                      A                      A
 Frequencies --     92.2889               115.4577               124.4965
 Red. masses --     10.6362                 7.4620                 5.8651
 Frc consts  --      0.0534                 0.0586                 0.0536
 IR Inten    --      1.9311                 0.7273                13.9276

                     10                     11                     12
                      A                      A                      A
 Frequencies --    147.0873               162.6182               180.6516
 Red. masses --      6.5486                12.4588                 6.9910
 Frc consts  --      0.0835                 0.1941                 0.1344
 IR Inten    --      1.3758                 0.5872                10.5963

                     13                     14                     15
                      A                      A                      A
 Frequencies --    188.9914               218.4522               232.1818
 Red. masses --      6.4575                 6.7008                 5.7206
 Frc consts  --      0.1359                 0.1884                 0.1817
 IR Inten    --     10.6501                 4.4979                23.9186

                     16                     17                     18
                      A                      A                      A
 Frequencies --    254.1315               262.2242               284.1484
 Red. masses --      8.0923                 4.0527                 2.9059
 Frc consts  --      0.3079                 0.1642                 0.1382
 IR Inten    --      2.5107                17.9778                17.0577

                     19                     20                     21
                      A                      A                      A
 Frequencies --    312.9634               322.7021               344.9969
 Red. masses --      4.4281                 6.9096                 3.2352
 Frc consts  --      0.2555                 0.4239                 0.2269
 IR Inten    --      8.1006                28.2832                 8.4060

                     22                     23                     24
                      A                      A                      A
 Frequencies --    358.1543               393.0624               417.1555
 Red. masses --      2.3184                 5.2659                 2.8983
 Frc consts  --      0.1752                 0.4793                 0.2972
 IR Inten    --      6.7633                19.6282                 0.0736

                     25                     26                     27
                      A                      A                      A
 Frequencies --    433.4157               440.5734               457.8619
 Red. masses --      3.2797                 3.7561                 4.1327
 Frc consts  --      0.3630                 0.4296                 0.5104
 IR Inten    --     40.0903                16.9061                13.6279

                     28                     29                     30
                      A                      A                      A
 Frequencies --    473.5427               494.8422               507.8739
 Red. masses --      2.6594                 4.7197                 9.9744
 Frc consts  --      0.3514                 0.6809                 1.5158
 IR Inten    --     18.2400                12.9856                41.1986

                     31                     32                     33
                      A                      A                      A
 Frequencies --    526.5326               530.8665               540.7270
 Red. masses --      4.2227                 4.7230                 1.6627
 Frc consts  --      0.6897                 0.7842                 0.2864
 IR Inten    --     13.8491                32.3352               281.0365

                     34                     35                     36
                      A                      A                      A
 Frequencies --    561.9158               565.0192               580.2054
 Red. masses --      4.1143                 4.1565                 6.8120
 Frc consts  --      0.7654                 0.7818                 1.3511
 IR Inten    --    398.9225               113.5855                31.6851

                     37                     38                     39
                      A                      A                      A
 Frequencies --    594.1849               598.9758               629.4384
 Red. masses --      5.9156                 2.5693                 6.2509
 Frc consts  --      1.2305                 0.5431                 1.4591
 IR Inten    --     69.6459                42.3425                 0.2671

                     40                     41                     42
                      A                      A                      A
 Frequencies --    656.0543               668.6632               682.4035
 Red. masses --      4.6278                 5.2323                 6.6996
 Frc consts  --      1.1736                 1.3783                 1.8382
 IR Inten    --     34.2925                28.2607                30.7369

                     43                     44                     45
                      A                      A                      A
 Frequencies --    717.9002               721.7923               734.6454
 Red. masses --      2.1181                 2.5237                 4.8681
 Frc consts  --      0.6432                 0.7747                 1.5480
 IR Inten    --     19.5140               680.6684                31.1071

                     46                     47                     48
                      A                      A                      A
 Frequencies --    753.1977               768.4648               792.3933
 Red. masses --      3.1287                 3.1509                 3.8862
 Frc consts  --      1.0458                 1.0963                 1.4377
 IR Inten    --     49.3434               190.1456                12.0508

                     49                     50                     51
                      A                      A                      A
 Frequencies --    799.8241               840.4802               853.1090
 Red. masses --      5.7103                 5.0004                 3.7264
 Frc consts  --      2.1523                 2.0812                 1.5979
 IR Inten    --     24.2567                70.2210                 7.1820

                     52                     53                     54
                      A                      A                      A
 Frequencies --    883.0776               892.6967               910.2960
 Red. masses --      1.2465                 2.5767                 1.5740
 Frc consts  --      0.5727                 1.2098                 0.7684
 IR Inten    --      0.0133                38.7195                62.7454

                     55                     56                     57
                      A                      A                      A
 Frequencies --    922.7067               958.1333               968.5488
 Red. masses --      2.1926                 1.4879                 1.4385
 Frc consts  --      1.0999                 0.8048                 0.7951
 IR Inten    --      4.8439                21.4054                22.0895

                     58                     59                     60
                      A                      A                      A
 Frequencies --    990.2375              1015.5705              1015.8319
 Red. masses --      5.4392                 5.3071                 1.4114
 Frc consts  --      3.1424                 3.2250                 0.8581
 IR Inten    --    160.4232                 0.6144                 0.0559

                     61                     62                     63
                      A                      A                      A
 Frequencies --   1034.4953              1043.5721              1062.2750
 Red. masses --      1.2977                 2.5459                 2.1637
 Frc consts  --      0.8183                 1.6336                 1.4385
 IR Inten    --      0.0233                13.6893                 9.0425

                     64                     65                     66
                      A                      A                      A
 Frequencies --   1100.8825              1118.8111              1122.0041
 Red. masses --      2.0223                 1.4124                 1.5932
 Frc consts  --      1.4440                 1.0416                 1.1817
 IR Inten    --     32.2594                23.2031                19.5604

                     67                     68                     69
                      A                      A                      A
 Frequencies --   1131.2820              1138.2762              1162.9771
 Red. masses --      5.4338                 2.7814                 6.9881
 Frc consts  --      4.0973                 2.1233                 5.5686
 IR Inten    --    162.8500               161.2331               333.0668

                     70                     71                     72
                      A                      A                      A
 Frequencies --   1171.3559              1184.1239              1197.7504
 Red. masses --      1.1022                10.1209                 1.1220
 Frc consts  --      0.8910                 8.3611                 0.9483
 IR Inten    --      0.5986               493.0218                 0.7481

                     73                     74                     75
                      A                      A                      A
 Frequencies --   1200.0079              1210.7451              1235.3794
 Red. masses --      8.1234                 2.7476                 1.4695
 Frc consts  --      6.8922                 2.3730                 1.3213
 IR Inten    --    403.2955               196.7270                29.2211

                     76                     77                     78
                      A                      A                      A
 Frequencies --   1246.6732              1281.7556              1291.1074
 Red. masses --      2.2645                 1.8455                 1.5658
 Frc consts  --      2.0736                 1.7864                 1.5379
 IR Inten    --     27.9070                39.5452               181.4518

                     79                     80                     81
                      A                      A                      A
 Frequencies --   1313.7236              1335.1455              1343.4456
 Red. masses --     10.1659                 1.9999                 2.0496
 Frc consts  --     10.3373                 2.1005                 2.1795
 IR Inten    --    508.0065               107.0378                69.6868

                     82                     83                     84
                      A                      A                      A
 Frequencies --   1348.7043              1356.4903              1359.6624
 Red. masses --      4.4620                 3.0923                 1.4011
 Frc consts  --      4.7820                 3.3525                 1.5261
 IR Inten    --      6.2750               402.3409                37.0937

                     85                     86                     87
                      A                      A                      A
 Frequencies --   1369.4994              1397.3815              1415.4533
 Red. masses --      2.0413                 1.6376                 2.2714
 Frc consts  --      2.2558                 1.8840                 2.6812
 IR Inten    --     28.6598                18.8035                33.4416

                     88                     89                     90
                      A                      A                      A
 Frequencies --   1469.2670              1485.5446              1489.2008
 Red. masses --      2.3243                 1.2847                 2.0047
 Frc consts  --      2.9563                 1.6705                 2.6195
 IR Inten    --     96.2125                16.8954                37.3131

                     91                     92                     93
                      A                      A                      A
 Frequencies --   1499.5413              1545.4649              1550.4491
 Red. masses --      2.1741                 2.4589                 3.7274
 Frc consts  --      2.8804                 3.4603                 5.2793
 IR Inten    --     12.7117                26.1338                82.4517

                     94                     95                     96
                      A                      A                      A
 Frequencies --   1555.8447              1590.9099              1642.3612
 Red. masses --      3.4315                 1.1016                 6.9561
 Frc consts  --      4.8940                 1.6427                11.0549
 IR Inten    --    964.5938               109.6021                35.2399

                     97                     98                     99
                      A                      A                      A
 Frequencies --   1665.3440              1685.4912              1694.0334
 Red. masses --      6.0552                 6.1959                 6.7140
 Frc consts  --      9.8943                10.3707                11.3521
 IR Inten    --      0.9704                22.5515               342.6729

                    100                    101                    102
                      A                      A                      A
 Frequencies --   1704.2867              3040.3001              3096.0674
 Red. masses --      8.4777                 1.0834                 1.0604
 Frc consts  --     14.5081                 5.9003                 5.9890
 IR Inten    --   1545.7133                85.7101                24.2354

                    103                    104                    105
                      A                      A                      A
 Frequencies --   3150.0115              3211.5584              3214.7313
 Red. masses --      1.1060                 1.0895                 1.0893
 Frc consts  --      6.4659                 6.6208                 6.6328
 IR Inten    --     19.3865                 8.6017                 6.8727

                    106                    107                    108
                      A                      A                      A
 Frequencies --   3226.0527              3235.0308              3243.9424
 Red. masses --      1.0901                 1.0945                 1.0987
 Frc consts  --      6.6842                 6.7488                 6.8121
 IR Inten    --      4.0825                27.7545                14.4610

                    109                    110                    111
                      A                      A                      A
 Frequencies --   3257.1262              3262.3949              3503.1220
 Red. masses --      1.0923                 1.0915                 1.0493
 Frc consts  --      6.8278                 6.8444                 7.5865
 IR Inten    --      9.0654                15.2997               136.5316

                    112                    113                    114
                      A                      A                      A
 Frequencies --   3571.2103              3576.8249              3607.3505
 Red. masses --      1.0776                 1.0784                 1.0982
 Frc consts  --      8.0972                 8.1291                 8.4200
 IR Inten    --    220.9827               181.3235               167.2520

 - Thermochemistry -
 -------------------
 Temperature   298.150 Kelvin.  Pressure   1.00000 Atm.
 Atom     1 has atomic number  6 and mass  12.00000

 Molecular mass:   385.07080 amu.
 Principal axes and moments of inertia in atomic units:
                           1         2         3
     Eigenvalues --  5403.92485********************
           X            0.99994  -0.01085  -0.00242
           Y            0.01085   0.99994  -0.00172
           Z            0.00244   0.00169   1.00000
 This molecule is an asymmetric top.
 Rotational symmetry number  1.
 Warning -- assumption of classical behavior for rotation
           may cause significant error
 Rotational temperatures (Kelvin)      0.01603     0.00478     0.00395
 Rotational constants (GHZ):           0.33397     0.09962     0.08233
 Zero-point vibrational energy     778344.0 (Joules/Mol)
                                  186.02869 (Kcal/Mol)
 Warning -- explicit consideration of  38 degrees of freedom as
           vibrations may cause significant error
 Vibrational temperatures:     26.34    41.59    67.73    74.20    87.20
          (Kelvin)            118.39   132.78   166.12   179.12   211.63
                              233.97   259.92   271.92   314.30   334.06
                              365.64   377.28   408.83   450.28   464.30
                              496.37   515.30   565.53   600.19   623.59
                              633.89   658.76   681.32   711.97   730.72
                              757.56   763.80   777.99   808.47   812.94
                              834.79   854.90   861.79   905.62   943.92
                              962.06   981.83  1032.90  1038.50  1056.99
                             1083.68  1105.65  1140.08  1150.77  1209.26
                             1227.43  1270.55  1284.39  1309.71  1327.57
                             1378.54  1393.53  1424.73  1461.18  1461.56
                             1488.41  1501.47  1528.38  1583.92  1609.72
                             1614.31  1627.66  1637.73  1673.26  1685.32
                             1703.69  1723.30  1726.54  1741.99  1777.44
                             1793.68  1844.16  1857.62  1890.16  1920.98
                             1932.92  1940.48  1951.69  1956.25  1970.40
                             2010.52  2036.52  2113.95  2137.37  2142.63
                             2157.51  2223.58  2230.75  2238.51  2288.96
                             2362.99  2396.06  2425.05  2437.34  2452.09
                             4374.31  4454.55  4532.16  4620.72  4625.28
                             4641.57  4654.49  4667.31  4686.28  4693.86
                             5040.21  5138.18  5146.25  5190.17

 Zero-point correction=                           0.296456 (Hartree/Particle)
 Thermal correction to Energy=                    0.318630
 Thermal correction to Enthalpy=                  0.319574
 Thermal correction to Gibbs Free Energy=         0.243546
 Sum of electronic and zero-point Energies=          -1705.005238
 Sum of electronic and thermal Energies=             -1704.983064
 Sum of electronic and thermal Enthalpies=           -1704.982120
 Sum of electronic and thermal Free Energies=        -1705.058148

                     E (Thermal)             CV                S
                      KCal/Mol        Cal/Mol-Kelvin    Cal/Mol-Kelvin
 Total                  199.943             86.057            160.014
 Electronic               0.000              0.000              0.000
 Translational            0.889              2.981             43.737
 Rotational               0.889              2.981             36.016
 Vibrational            198.166             80.095             80.261
 Vibration     1          0.593              1.986              6.810
 Vibration     2          0.593              1.984              5.903
 Vibration     3          0.595              1.979              4.937
 Vibration     4          0.596              1.977              4.756
 Vibration     5          0.597              1.973              4.437
 Vibration     6          0.600              1.961              3.836
 Vibration     7          0.602              1.955              3.611
 Vibration     8          0.608              1.937              3.175
 Vibration     9          0.610              1.928              3.029
 Vibration    10          0.617              1.906              2.710
 Vibration    11          0.623              1.888              2.519
 Vibration    12          0.630              1.866              2.322
 Vibration    13          0.633              1.855              2.238
 Vibration    14          0.646              1.813              1.972
 Vibration    15          0.653              1.792              1.862
 Vibration    16          0.665              1.756              1.702
 Vibration    17          0.670              1.742              1.647
 Vibration    18          0.683              1.703              1.509
 Vibration    19          0.701              1.649              1.347
 Vibration    20          0.708              1.630              1.296
 Vibration    21          0.723              1.585              1.189
 Vibration    22          0.733              1.558              1.130
 Vibration    23          0.760              1.485              0.989
 Vibration    24          0.780              1.433              0.902
 Vibration    25          0.794              1.397              0.848
 Vibration    26          0.800              1.382              0.825
 Vibration    27          0.816              1.344              0.772
 Vibration    28          0.830              1.309              0.728
 Vibration    29          0.850              1.261              0.671
 Vibration    30          0.863              1.233              0.639
 Vibration    31          0.881              1.191              0.595
 Vibration    32          0.886              1.182              0.585
 Vibration    33          0.896              1.160              0.564
 Vibration    34          0.918              1.114              0.520
 Vibration    35          0.921              1.107              0.514
 Vibration    36          0.937              1.074              0.485
 Vibration    37          0.952              1.044              0.460
 Vibration    38          0.957              1.034              0.451

                           ! Non-Optimized Parameters !
 Normal termination of Gaussian 16 at Fri Jul  1 10:29:44 2022.
