 Gaussian 16, Revision C.01,
 Gaussian 16:  ES64L-G16RevC.01  3-Jul-2019

 -----------------------------------------------------
 #m062X/gen 6D OPT Freq=noraman SCRF=(SMD,Solvent=h2o)
 -----------------------------------------------------

 --------------------
 HA.35.smd.a3d3e3.smd
 --------------------
 Symbolic Z-matrix:
 Charge =  0 Multiplicity = 1

 SCF Done:  E(RM062X) =  -2845.78400635     A.U. after   16 cycles
 SCF Done:  E(RM062X) =  -2845.80558367     A.U. after   16 cycles
 SCF Done:  E(RM062X) =  -2845.80486698     A.U. after   14 cycles
 SCF Done:  E(RM062X) =  -2845.81100158     A.U. after   13 cycles
 SCF Done:  E(RM062X) =  -2845.81046407     A.U. after   14 cycles
 SCF Done:  E(RM062X) =  -2845.81193104     A.U. after   13 cycles
 SCF Done:  E(RM062X) =  -2845.81249144     A.U. after   13 cycles
 SCF Done:  E(RM062X) =  -2845.81262796     A.U. after   12 cycles
 SCF Done:  E(RM062X) =  -2845.81266087     A.U. after   11 cycles
 SCF Done:  E(RM062X) =  -2845.81266027     A.U. after   12 cycles
 SCF Done:  E(RM062X) =  -2845.81268214     A.U. after   12 cycles
 SCF Done:  E(RM062X) =  -2845.81269348     A.U. after   11 cycles
 SCF Done:  E(RM062X) =  -2845.81269740     A.U. after   11 cycles
 SCF Done:  E(RM062X) =  -2845.81270046     A.U. after   11 cycles
 SCF Done:  E(RM062X) =  -2845.81270083     A.U. after   11 cycles
 SCF Done:  E(RM062X) =  -2845.81270069     A.U. after   11 cycles
 SCF Done:  E(RM062X) =  -2845.81270105     A.U. after    9 cycles
 SCF Done:  E(RM062X) =  -2845.81270102     A.U. after    8 cycles
 Optimization completed.
    -- Stationary point found.
 Normal termination of Gaussian 16 at Fri Jul  1 18:58:27 2022.

 ------------------------------------------------------------------
 #N Geom=AllCheck Guess=TCheck SCRF=Check GenChk RM062X/ChkBas Freq
 ------------------------------------------------------------------

 Structure from the checkpoint file:  "/jobfs/49943079.gadi-pbs/Gau-1449994.chk"
 --------------------
 HA.35.smd.a3d3e3.smd
 --------------------
 Charge =  0 Multiplicity = 1

                         Standard orientation:
 ---------------------------------------------------------------------
 Center     Atomic      Atomic             Coordinates (Angstroms)
 Number     Number       Type             X           Y           Z
 ---------------------------------------------------------------------
      1          6           0       -3.193043   -0.238704    0.085832
      2          6           0       -2.654071   -1.464455   -0.358170
      3         17           0       -3.648477   -2.883949   -0.472023
      4          6           0       -1.329445   -1.580370   -0.712888
      5          1           0       -0.933555   -2.530769   -1.057827
      6          6           0       -0.465643   -0.466301   -0.627043
      7          6           0       -1.018137    0.745633   -0.178079
      8         16           0       -0.008019    2.178500   -0.019625
      9          6           0       -2.360466    0.864570    0.165244
     10          1           0       -2.744639    1.827860    0.489186
     11         16           0       -4.912270   -0.096629    0.541962
     12          8           0       -5.720858   -0.335252   -0.652879
     13          8           0       -5.135764   -0.924902    1.726293
     14          7           0       -5.190097    1.450283    0.994465
     15          1           0       -5.103321    2.131497    0.239028
     16          1           0       -4.701289    1.735669    1.844129
     17          7           0        0.831299   -0.567242   -1.015120
     18          6           0        1.814036    0.442745   -0.677444
     19          7           0        1.260553    1.771411   -1.050562
     20          8           0       -0.700179    3.337915   -0.584006
     21          8           0        0.453328    2.315158    1.368893
     22          1           0        1.191484   -1.503741   -1.181945
     23          6           0        2.265546    2.861607   -1.041986
     24          6           0        3.108267    0.184236   -1.443812
     25         16           0        3.760194   -1.506557   -1.247082
     26          6           0        3.975559   -1.661536    0.546596
     27          6           0        5.112964   -0.847021    1.108036
     28          1           0        2.026888    0.437673    0.403661
     29          1           0        2.880316    2.767197   -1.936067
     30          1           0        2.895371    2.829510   -0.145998
     31          1           0        1.746700    3.819816   -1.092081
     32          1           0        3.871470    0.901289   -1.147074
     33          1           0        2.930104    0.286682   -2.519390
     34          1           0        4.202624   -2.715091    0.732257
     35          1           0        3.065852   -1.408369    1.097414
     36          9           0        6.294157   -1.127248    0.531188
     37          9           0        5.258686   -1.077562    2.427342
     38          9           0        4.918239    0.479914    0.966961
 ---------------------------------------------------------------------

 SCF Done:  E(RM062X) =  -2845.81270102     A.U. after    1 cycles

 The electronic state is 1-A.
 Alpha  occ. eigenvalues -- -102.69525 -90.19104 -90.18511 -89.94563 -25.30856
 Alpha  occ. eigenvalues --  -25.30787 -25.30765 -19.66845 -19.66578 -19.66366
 Alpha  occ. eigenvalues --  -19.66361 -14.82314 -14.80945 -14.80845 -10.81661
 Alpha  occ. eigenvalues --  -10.65837 -10.65415 -10.65050 -10.61454 -10.61212
 Alpha  occ. eigenvalues --  -10.61123 -10.60223 -10.59455 -10.58816 -10.58540
 Alpha  occ. eigenvalues --   -9.84173  -8.49981  -8.49629  -8.28990  -7.56588
 Alpha  occ. eigenvalues --   -7.55909  -7.55878  -6.42194  -6.42164  -6.42066
 Alpha  occ. eigenvalues --   -6.41800  -6.41777  -6.41703  -6.21075  -6.20810
 Alpha  occ. eigenvalues --   -6.20385  -1.47380  -1.38078  -1.38027  -1.26600
 Alpha  occ. eigenvalues --   -1.26531  -1.14825  -1.14674  -1.11735  -1.05418
 Alpha  occ. eigenvalues --   -1.04018  -1.02498  -0.97462  -0.94343  -0.90866
 Alpha  occ. eigenvalues --   -0.89011  -0.87192  -0.82514  -0.81626  -0.78168
 Alpha  occ. eigenvalues --   -0.76834  -0.74316  -0.73602  -0.71269  -0.70025
 Alpha  occ. eigenvalues --   -0.69658  -0.67318  -0.66166  -0.64524  -0.63675
 Alpha  occ. eigenvalues --   -0.62484  -0.62462  -0.61192  -0.60202  -0.58452
 Alpha  occ. eigenvalues --   -0.58117  -0.57960  -0.57411  -0.55761  -0.55010
 Alpha  occ. eigenvalues --   -0.54666  -0.54329  -0.53968  -0.53771  -0.52942
 Alpha  occ. eigenvalues --   -0.51874  -0.51620  -0.50930  -0.50313  -0.49357
 Alpha  occ. eigenvalues --   -0.48950  -0.48174  -0.47661  -0.47079  -0.45362
 Alpha  occ. eigenvalues --   -0.44583  -0.44142  -0.43459  -0.42781  -0.42142
 Alpha  occ. eigenvalues --   -0.41585  -0.41380  -0.40911  -0.40456  -0.39457
 Alpha  occ. eigenvalues --   -0.39078  -0.38765  -0.38299  -0.34873  -0.33348
 Alpha  occ. eigenvalues --   -0.31150  -0.29012
 Alpha virt. eigenvalues --   -0.02947  -0.01623   0.00527   0.01457   0.01841
 Alpha virt. eigenvalues --    0.01977   0.02431   0.03167   0.03726   0.04006
 Alpha virt. eigenvalues --    0.04096   0.04793   0.05141   0.05177   0.05449

 Mulliken charges:
               1
     1  C   -2.247923
     2  C    0.190926
     3  Cl   0.330855
     4  C   -0.074993
     5  H    0.297400
     6  C    0.579909
     7  C   -0.971040
     8  S    1.686884
     9  C    0.465914
    10  H    0.317457
    11  S    1.717220
    12  O   -0.505960
    13  O   -0.511042
    14  N   -1.193725
    15  H    0.533005
    16  H    0.529909
    17  N   -0.399331
    18  C   -0.780617
    19  N   -0.529260
    20  O   -0.601752
    21  O   -0.490381
    22  H    0.489103
    23  C   -0.532119
    24  C   -0.318803
    25  S    0.272092
    26  C   -0.826393
    27  C    0.961154
    28  H    0.320769
    29  H    0.287085
    30  H    0.300075
    31  H    0.272697
    32  H    0.329625
    33  H    0.331509
    34  H    0.338780
    35  H    0.344013
    36  F   -0.294583
    37  F   -0.310907
    38  F   -0.307550
 Sum of Mulliken charges =   0.00000

 Dipole moment (field-independent basis, Debye):
    X=             10.4036    Y=             -0.4605    Z=             -2.8582  Tot=             10.7989
 Quadrupole moment (field-independent basis, Debye-Ang):
   XX=           -234.7028   YY=           -172.0441   ZZ=           -182.9767
   XY=            -23.8831   XZ=             -8.9923   YZ=              0.5683

  Exact polarizability:     390.789      11.757     334.922     -21.834      10.814     259.557
 Approx polarizability:     314.174       5.200     294.920     -14.560       8.858     242.416

                      1                      2                      3
                      A                      A                      A
 Frequencies --     13.8045                29.8987                34.6695
 Red. masses --     12.6340                11.1358                12.4139
 Frc consts  --      0.0014                 0.0059                 0.0088
 IR Inten    --      0.5157                 0.9500                 1.4163

                      4                      5                      6
                      A                      A                      A
 Frequencies --     44.6813                56.7263                73.6185
 Red. masses --     12.2178                 7.5789                 6.0048
 Frc consts  --      0.0144                 0.0144                 0.0192
 IR Inten    --      1.8245                11.9452                15.0908

                      7                      8                      9
                      A                      A                      A
 Frequencies --     84.2538                89.7353               101.9696
 Red. masses --      8.2758                10.9464                 7.1635
 Frc consts  --      0.0346                 0.0519                 0.0439
 IR Inten    --      3.8072                 2.7142                 1.8206

                     10                     11                     12
                      A                      A                      A
 Frequencies --    126.5613               153.1782               177.8024
 Red. masses --      8.0287                 4.6876                15.3064
 Frc consts  --      0.0758                 0.0648                 0.2851
 IR Inten    --      9.6231                 6.8839                 0.1848

                     13                     14                     15
                      A                      A                      A
 Frequencies --    184.5214               197.7623               201.6209
 Red. masses --     11.5126                 6.7762                14.7280
 Frc consts  --      0.2310                 0.1561                 0.3527
 IR Inten    --      2.4079                 5.5228                 4.5990

                     16                     17                     18
                      A                      A                      A
 Frequencies --    219.6327               238.7615               247.4703
 Red. masses --      6.9189                 4.8056                 4.8530
 Frc consts  --      0.1966                 0.1614                 0.1751
 IR Inten    --      8.3536                 6.3928                20.9031

                     19                     20                     21
                      A                      A                      A
 Frequencies --    262.0370               291.7487               296.2558
 Red. masses --      6.3204                 1.9279                 5.1315
 Frc consts  --      0.2557                 0.0967                 0.2654
 IR Inten    --     36.1224                 6.1230                10.0414

                     22                     23                     24
                      A                      A                      A
 Frequencies --    307.2272               336.8191               352.6101
 Red. masses --      6.2503                 3.4995                 2.3615
 Frc consts  --      0.3476                 0.2339                 0.1730
 IR Inten    --      6.8715                16.1957                16.3075

                     25                     26                     27
                      A                      A                      A
 Frequencies --    356.8794               363.1779               365.7364
 Red. masses --      2.5358                 6.2230                 5.3070
 Frc consts  --      0.1903                 0.4836                 0.4182
 IR Inten    --      6.1387                 3.7291                22.4562

                     28                     29                     30
                      A                      A                      A
 Frequencies --    398.8403               425.6032               430.8939
 Red. masses --      2.6719                 4.1348                 2.3269
 Frc consts  --      0.2504                 0.4413                 0.2545
 IR Inten    --      7.4778                12.1966               196.3134

                     31                     32                     33
                      A                      A                      A
 Frequencies --    439.3603               454.7423               474.3548
 Red. masses --      2.4725                 3.8116                 2.2332
 Frc consts  --      0.2812                 0.4644                 0.2961
 IR Inten    --     84.3717                24.2367                23.8114

                     34                     35                     36
                      A                      A                      A
 Frequencies --    487.8208               494.3941               520.4001
 Red. masses --      2.0642                 8.1291                 6.1397
 Frc consts  --      0.2894                 1.1707                 0.9797
 IR Inten    --     68.2446                72.2667                46.6281

                     37                     38                     39
                      A                      A                      A
 Frequencies --    531.9572               536.8728               537.8733
 Red. masses --     12.8187                 7.8048                 8.3022
 Frc consts  --      2.1372                 1.3254                 1.4151
 IR Inten    --      5.2061                66.5952                70.4757

                     40                     41                     42
                      A                      A                      A
 Frequencies --    550.8912               575.7901               607.5399
 Red. masses --      8.1776                 4.5410                 6.5752
 Frc consts  --      1.4622                 0.8870                 1.4299
 IR Inten    --     85.0949                28.6658                17.8303

                     43                     44                     45
                      A                      A                      A
 Frequencies --    641.0410               654.5664               660.8442
 Red. masses --      9.0790                 3.0614                 3.4458
 Frc consts  --      2.1982                 0.7728                 0.8866
 IR Inten    --     50.8143               241.0466               269.6605

                     46                     47                     48
                      A                      A                      A
 Frequencies --    695.1260               703.4902               714.5304
 Red. masses --      4.3553                 6.7860                 4.7544
 Frc consts  --      1.2399                 1.9787                 1.4302
 IR Inten    --    277.6127                37.1686                17.7137

                     49                     50                     51
                      A                      A                      A
 Frequencies --    723.8596               773.8772               802.9997
 Red. masses --      4.4177                 4.8463                 6.7531
 Frc consts  --      1.3638                 1.7100                 2.5656
 IR Inten    --     24.7928                16.8539                69.4286

                     52                     53                     54
                      A                      A                      A
 Frequencies --    831.3736               864.1126               873.5686
 Red. masses --      5.6377                 2.2369                 4.9661
 Frc consts  --      2.2959                 0.9841                 2.2328
 IR Inten    --    180.9377                35.0981                24.2607

                     55                     56                     57
                      A                      A                      A
 Frequencies --    882.8706               900.8175               906.9413
 Red. masses --      1.5114                 2.4269                 3.2787
 Frc consts  --      0.6941                 1.1603                 1.5890
 IR Inten    --     49.8070                16.0815                49.5206

                     58                     59                     60
                      A                      A                      A
 Frequencies --    932.5928               983.3568               984.6816
 Red. masses --      1.3848                 5.0109                 2.9130
 Frc consts  --      0.7096                 2.8549                 1.6641
 IR Inten    --     20.9369               143.8610               108.5499

                     61                     62                     63
                      A                      A                      A
 Frequencies --   1090.1213              1100.7215              1113.8593
 Red. masses --      7.0319                 2.6123                 1.2622
 Frc consts  --      4.9235                 1.8648                 0.9227
 IR Inten    --    121.7897                 8.6034                 1.3846

                     64                     65                     66
                      A                      A                      A
 Frequencies --   1122.6626              1133.2129              1134.5411
 Red. masses --      3.7768                 4.6139                 3.6059
 Frc consts  --      2.8046                 3.4909                 2.7347
 IR Inten    --    375.7829               462.6725               406.9365

                     67                     68                     69
                      A                      A                      A
 Frequencies --   1148.9587              1158.5418              1166.8350
 Red. masses --      3.8916                 1.5533                 5.8883
 Frc consts  --      3.0268                 1.2283                 4.7235
 IR Inten    --    175.4875                74.0695               436.2818

                     70                     71                     72
                      A                      A                      A
 Frequencies --   1178.5460              1189.1033              1235.2032
 Red. masses --      2.7752                 3.2810                 1.7509
 Frc consts  --      2.2711                 2.7333                 1.5740
 IR Inten    --    122.6691               170.3805                47.6724

                     73                     74                     75
                      A                      A                      A
 Frequencies --   1255.2094              1263.4761              1283.5798
 Red. masses --      1.4816                 6.7429                 2.1265
 Frc consts  --      1.3753                 6.3420                 2.0642
 IR Inten    --     73.4358               492.0323               102.4718

                     76                     77                     78
                      A                      A                      A
 Frequencies --   1292.9034              1299.4969              1307.7941
 Red. masses --      1.5827                11.6249                 1.6325
 Frc consts  --      1.5588                11.5662                 1.6451
 IR Inten    --    182.8207               591.0748               142.6169

                     79                     80                     81
                      A                      A                      A
 Frequencies --   1328.5022              1352.0225              1365.6783
 Red. masses --      2.0480                 1.3468                 3.8714
 Frc consts  --      2.1297                 1.4505                 4.2542
 IR Inten    --     24.9560                 9.8034               123.8445

                     82                     83                     84
                      A                      A                      A
 Frequencies --   1387.8820              1399.5659              1417.4865
 Red. masses --      2.0666                 1.5124                 1.7570
 Frc consts  --      2.3453                 1.7454                 2.0800
 IR Inten    --    167.1064                98.3292                25.0932

                     85                     86                     87
                      A                      A                      A
 Frequencies --   1449.7681              1469.5337              1474.2021
 Red. masses --      1.5643                 1.1319                 1.0951
 Frc consts  --      1.9371                 1.4401                 1.4022
 IR Inten    --     24.8536                25.5766                20.5906

                     88                     89                     90
                      A                      A                      A
 Frequencies --   1479.7060              1507.7604              1511.6395
 Red. masses --      1.2279                 1.2076                 1.8230
 Frc consts  --      1.5840                 1.6175                 2.4543
 IR Inten    --     16.7738                 9.4152                44.2166

                     91                     92                     93
                      A                      A                      A
 Frequencies --   1528.4209              1568.4214              1592.9776
 Red. masses --      1.0437                 3.5913                 1.1069
 Frc consts  --      1.4365                 5.2050                 1.6549
 IR Inten    --     33.8260               644.9724               102.2568

                     94                     95                     96
                      A                      A                      A
 Frequencies --   1631.2182              1671.1283              3046.1491
 Red. masses --      5.7235                 6.5706                 1.0826
 Frc consts  --      8.9729                10.8112                 5.9185
 IR Inten    --    153.4856               841.4201                49.8944

                     97                     98                     99
                      A                      A                      A
 Frequencies --   3098.2981              3129.0332              3133.5415
 Red. masses --      1.0400                 1.0673                 1.0605
 Frc consts  --      5.8819                 6.1571                 6.1350
 IR Inten    --     33.7324                 1.0703                 5.1467

                    100                    101                    102
                      A                      A                      A
 Frequencies --   3191.4605              3193.9251              3219.4348
 Red. masses --      1.1074                 1.0992                 1.1037
 Frc consts  --      6.6456                 6.6066                 6.7398
 IR Inten    --      7.6386                 6.5495                 1.2588

                    103                    104                    105
                      A                      A                      A
 Frequencies --   3224.9429              3243.0547              3245.7510
 Red. masses --      1.1009                 1.0936                 1.0922
 Frc consts  --      6.7457                 6.7769                 6.7795
 IR Inten    --      1.9179                13.0394                 8.9141

                    106                    107                    108
                      A                      A                      A
 Frequencies --   3503.2836              3563.5572              3612.4132
 Red. masses --      1.0476                 1.0782                 1.1019
 Frc consts  --      7.5753                 8.0671                 8.4720
 IR Inten    --    173.4923               325.1306               189.2019

 - Thermochemistry -
 -------------------
 Temperature   298.150 Kelvin.  Pressure   1.00000 Atm.
 Atom     1 has atomic number  6 and mass  12.00000

 Molecular mass:   438.97088 amu.
 Principal axes and moments of inertia in atomic units:
                           1         2         3
     Eigenvalues --  5828.27686********************
           X            0.99996  -0.00238  -0.00842
           Y            0.00233   0.99998  -0.00599
           Z            0.00844   0.00597   0.99995
 This molecule is an asymmetric top.
 Rotational symmetry number  1.
 Warning -- assumption of classical behavior for rotation
           may cause significant error
 Rotational temperatures (Kelvin)      0.01486     0.00380     0.00339
 Rotational constants (GHZ):           0.30965     0.07912     0.07061
 Zero-point vibrational energy     695165.9 (Joules/Mol)
                                  166.14865 (Kcal/Mol)
 Warning -- explicit consideration of  42 degrees of freedom as
           vibrations may cause significant error
 Vibrational temperatures:     19.86    43.02    49.88    64.29    81.62
          (Kelvin)            105.92   121.22   129.11   146.71   182.09
                              220.39   255.82   265.49   284.54   290.09
                              316.00   343.52   356.05   377.01   419.76
                              426.25   442.03   484.61   507.33   513.47
                              522.53   526.21   573.84   612.35   619.96
                              632.14   654.27   682.49   701.87   711.32
                              748.74   765.37   772.44   773.88   792.61
                              828.43   874.11   922.31   941.77   950.81
                             1000.13  1012.17  1028.05  1041.47  1113.44
                             1155.34  1196.16  1243.27  1256.87  1270.25
                             1296.08  1304.89  1341.79  1414.83  1416.74
                             1568.44  1583.69  1602.60  1615.26  1630.44
                             1632.35  1653.10  1666.88  1678.82  1695.66
                             1710.85  1777.18  1805.97  1817.86  1846.79
                             1860.20  1869.69  1881.62  1911.42  1945.26
                             1964.91  1996.85  2013.66  2039.45  2085.89
                             2114.33  2121.05  2128.97  2169.33  2174.91
                             2199.06  2256.61  2291.94  2346.96  2404.38
                             4382.73  4457.76  4501.98  4508.47  4591.80
                             4595.35  4632.05  4639.97  4666.03  4669.91
                             5040.44  5127.16  5197.46

 Zero-point correction=                           0.264775 (Hartree/Particle)
 Thermal correction to Energy=                    0.288978
 Thermal correction to Enthalpy=                  0.289922
 Thermal correction to Gibbs Free Energy=         0.208772
 Sum of electronic and zero-point Energies=          -2845.547926
 Sum of electronic and thermal Energies=             -2845.523723
 Sum of electronic and thermal Enthalpies=           -2845.522779
 Sum of electronic and thermal Free Energies=        -2845.603929

                     E (Thermal)             CV                S
                      KCal/Mol        Cal/Mol-Kelvin    Cal/Mol-Kelvin
 Total                  181.336             90.826            170.794
 Electronic               0.000              0.000              0.000
 Translational            0.889              2.981             44.127
 Rotational               0.889              2.981             36.473
 Vibrational            179.559             84.864             90.194
 Vibration     1          0.593              1.986              7.371
 Vibration     2          0.594              1.984              5.836
 Vibration     3          0.594              1.983              5.543
 Vibration     4          0.595              1.980              5.040
 Vibration     5          0.596              1.975              4.568
 Vibration     6          0.599              1.966              4.054
 Vibration     7          0.601              1.960              3.789
 Vibration     8          0.602              1.956              3.666
 Vibration     9          0.604              1.948              3.416
 Vibration    10          0.611              1.927              2.998
 Vibration    11          0.619              1.899              2.632
 Vibration    12          0.628              1.870              2.351
 Vibration    13          0.631              1.861              2.282
 Vibration    14          0.637              1.843              2.154
 Vibration    15          0.639              1.838              2.118
 Vibration    16          0.647              1.811              1.962
 Vibration    17          0.657              1.781              1.812
 Vibration    18          0.661              1.767              1.749
 Vibration    19          0.669              1.742              1.648
 Vibration    20          0.687              1.689              1.464
 Vibration    21          0.690              1.681              1.438
 Vibration    22          0.697              1.660              1.377
 Vibration    23          0.718              1.602              1.227
 Vibration    24          0.729              1.570              1.155
 Vibration    25          0.732              1.561              1.136
 Vibration    26          0.737              1.548              1.108
 Vibration    27          0.739              1.543              1.098
 Vibration    28          0.765              1.473              0.967
 Vibration    29          0.787              1.415              0.873
 Vibration    30          0.792              1.403              0.856
 Vibration    31          0.799              1.384              0.829
 Vibration    32          0.813              1.350              0.782
 Vibration    33          0.831              1.307              0.725
 Vibration    34          0.844              1.277              0.689
 Vibration    35          0.850              1.262              0.672
 Vibration    36          0.875              1.205              0.609
 Vibration    37          0.887              1.179              0.583
 Vibration    38          0.892              1.168              0.572
 Vibration    39          0.893              1.166              0.570
 Vibration    40          0.906              1.138              0.542
 Vibration    41          0.932              1.084              0.493
 Vibration    42          0.966              1.016              0.437

 Optimization completed.
    -- Stationary point found.
 Normal termination of Gaussian 16 at Fri Jul  1 19:28:59 2022.
