 Gaussian 16, Revision C.01,
 Gaussian 16:  ES64L-G16RevC.01  3-Jul-2019

 -----------------------------------------------------
 #m062X/gen 6D OPT Freq=noraman SCRF=(SMD,Solvent=h2o)
 -----------------------------------------------------

 ----------------
 HA.38.smd.a3.smd
 ----------------
 Symbolic Z-matrix:
 Charge =  0 Multiplicity = 1

 SCF Done:  E(RM062X) =  -2358.95243073     A.U. after   16 cycles
 SCF Done:  E(RM062X) =  -2358.95322491     A.U. after   14 cycles
 SCF Done:  E(RM062X) =  -2358.95336469     A.U. after   13 cycles
 SCF Done:  E(RM062X) =  -2358.95339624     A.U. after   12 cycles
 SCF Done:  E(RM062X) =  -2358.95340100     A.U. after   12 cycles
 SCF Done:  E(RM062X) =  -2358.95340673     A.U. after   11 cycles
 SCF Done:  E(RM062X) =  -2358.95340775     A.U. after   11 cycles
 SCF Done:  E(RM062X) =  -2358.95340777     A.U. after    9 cycles
 Optimization completed.
    -- Stationary point found.
 Normal termination of Gaussian 16 at Sat Jul  2 14:40:43 2022.

 ------------------------------------------------------------------
 #N Geom=AllCheck Guess=TCheck SCRF=Check GenChk RM062X/ChkBas Freq
 ------------------------------------------------------------------

 Structure from the checkpoint file:  "/jobfs/50077393.gadi-pbs/Gau-690335.chk"
 ----------------
 HA.38.smd.a3.smd
 ----------------
 Charge =  0 Multiplicity = 1

                         Standard orientation:
 ---------------------------------------------------------------------
 Center     Atomic      Atomic             Coordinates (Angstroms)
 Number     Number       Type             X           Y           Z
 ---------------------------------------------------------------------
      1          6           0        0.864374   -0.433330   -0.018355
      2          6           0        1.148922    0.939647    0.004817
      3          6           0        0.090220    1.852601   -0.024399
      4          6           0       -1.228376    1.408818   -0.071971
      5          6           0       -1.472019    0.044933   -0.090524
      6          6           0       -0.444404   -0.892095   -0.063596
      7         16           0        2.212836   -1.629199    0.001300
      8          8           0        2.973990   -1.442024   -1.229530
      9          8           0        2.878504   -1.512274    1.294602
     10          7           0        1.564850   -3.122181   -0.066190
     11          1           0        1.089880   -3.343656   -0.942246
     12          1           0        1.038263   -3.400342    0.762837
     13         17           0        2.774361    1.511507    0.065503
     14         17           0        0.387853    3.555733   -0.007692
     15         16           0       -3.163172   -0.529435   -0.113811
     16          1           0       -2.042340    2.127052   -0.101483
     17          1           0       -0.667662   -1.954634   -0.087371
     18          8           0       -3.981409    0.553129   -0.650082
     19          8           0       -3.163169   -1.840928   -0.754321
     20          7           0       -3.652640   -0.766720    1.436993
     21          1           0       -3.658077    0.098629    1.980850
     22          1           0       -3.113419   -1.496358    1.908018
 ---------------------------------------------------------------------

 SCF Done:  E(RM062X) =  -2358.95340777     A.U. after    2 cycles

 The electronic state is 1-A.
 Alpha  occ. eigenvalues -- -102.70530-102.69898 -90.19669 -90.19219 -19.66993
 Alpha  occ. eigenvalues --  -19.66983 -19.66962 -19.66928 -14.81257 -14.80900
 Alpha  occ. eigenvalues --  -10.67099 -10.65964 -10.63324 -10.62420 -10.61365
 Alpha  occ. eigenvalues --  -10.61100  -9.85161  -9.84539  -8.50546  -8.50173
 Alpha  occ. eigenvalues --   -7.57586  -7.56960  -7.56893  -7.56850  -7.56273
 Alpha  occ. eigenvalues --   -7.56239  -6.42752  -6.42728  -6.42643  -6.42368
 Alpha  occ. eigenvalues --   -6.42360  -6.42259  -1.27217  -1.27111  -1.15659
 Alpha  occ. eigenvalues --   -1.15559  -1.06001  -1.04464  -1.03899  -0.98962
 Alpha  occ. eigenvalues --   -0.98400  -0.90434  -0.87096  -0.79382  -0.78169
 Alpha  occ. eigenvalues --   -0.72538  -0.70764  -0.66604  -0.63067  -0.62967
 Alpha  occ. eigenvalues --   -0.62344  -0.61271  -0.60843  -0.58819  -0.58329
 Alpha  occ. eigenvalues --   -0.55486  -0.54861  -0.54309  -0.52665  -0.50183
 Alpha  occ. eigenvalues --   -0.48803  -0.45186  -0.45085  -0.44831  -0.44771
 Alpha  occ. eigenvalues --   -0.43353  -0.42465  -0.42324  -0.41650  -0.41209
 Alpha  occ. eigenvalues --   -0.40929  -0.40157  -0.39800  -0.38950  -0.38501
 Alpha  occ. eigenvalues --   -0.34670  -0.32984
 Alpha virt. eigenvalues --   -0.04694  -0.03056   0.00220   0.00343   0.02118
 Alpha virt. eigenvalues --    0.03117   0.03529   0.03773   0.04361   0.04987
 Alpha virt. eigenvalues --    0.05250   0.05936   0.06822   0.06933   0.07297

 Mulliken charges:
               1
     1  C   -1.185415
     2  C    0.081034
     3  C    0.182110
     4  C   -0.845466
     5  C   -0.716399
     6  C    0.501689
     7  S    1.476378
     8  O   -0.540339
     9  O   -0.531859
    10  N   -1.173979
    11  H    0.533111
    12  H    0.531987
    13  Cl   0.369371
    14  Cl   0.286585
    15  S    1.609034
    16  H    0.322278
    17  H    0.323770
    18  O   -0.606531
    19  O   -0.629937
    20  N   -1.010795
    21  H    0.511074
    22  H    0.512299
 Sum of Mulliken charges =  -0.00000

 Dipole moment (field-independent basis, Debye):
    X=             -4.1998    Y=             -1.2184    Z=              5.3687  Tot=              6.9243
 Quadrupole moment (field-independent basis, Debye-Ang):
   XX=           -170.0958   YY=           -109.3739   ZZ=           -120.2662
   XY=              3.7239   XZ=            -18.7934   YZ=             -2.8870

  Exact polarizability:     257.835       6.875     249.330      -0.402      -0.184     150.076
 Approx polarizability:     220.883       7.394     223.332       0.893       0.348     144.122

                      1                      2                      3
                      A                      A                      A
 Frequencies --     31.2011                42.3196                66.1246
 Red. masses --      6.4971                 8.4188                19.0100
 Frc consts  --      0.0037                 0.0089                 0.0490
 IR Inten    --     13.2175                13.2353                 5.5302

                      4                      5                      6
                      A                      A                      A
 Frequencies --     84.5462               105.7978               152.5204
 Red. masses --      7.2553                10.1297                14.0433
 Frc consts  --      0.0306                 0.0668                 0.1925
 IR Inten    --     13.2801                13.5072                 0.3157

                      7                      8                      9
                      A                      A                      A
 Frequencies --    160.7716               214.4025               220.8916
 Red. masses --      7.1146                 7.2944                12.2879
 Frc consts  --      0.1083                 0.1976                 0.3533
 IR Inten    --      4.6481                 7.4790                 3.7557

                     10                     11                     12
                      A                      A                      A
 Frequencies --    242.2486               249.0413               278.4936
 Red. masses --      4.6547                 7.4154                 6.7118
 Frc consts  --      0.1609                 0.2710                 0.3067
 IR Inten    --     15.3235                 5.6149                39.7964

                     13                     14                     15
                      A                      A                      A
 Frequencies --    286.2230               305.1034               337.4036
 Red. masses --      2.6871                 5.4411                 3.0656
 Frc consts  --      0.1297                 0.2984                 0.2056
 IR Inten    --     15.5919                10.7375                 1.9056

                     16                     17                     18
                      A                      A                      A
 Frequencies --    346.8069               387.6213               430.3417
 Red. masses --      3.9519                 2.7374                 3.3256
 Frc consts  --      0.2800                 0.2423                 0.3629
 IR Inten    --     11.7531                 0.2771                35.8218

                     19                     20                     21
                      A                      A                      A
 Frequencies --    457.7565               467.6664               476.4521
 Red. masses --      8.8903                 8.8315                 8.0001
 Frc consts  --      1.0976                 1.1380                 1.0700
 IR Inten    --      3.4554                79.8691                22.5248

                     22                     23                     24
                      A                      A                      A
 Frequencies --    500.7701               528.0736               557.7806
 Red. masses --      1.5002                 8.1702                 5.6321
 Frc consts  --      0.2217                 1.3424                 1.0324
 IR Inten    --     80.8127               143.7964                15.8588

                     25                     26                     27
                      A                      A                      A
 Frequencies --    562.5402               585.3851               601.0402
 Red. masses --      5.8369                 7.8641                 4.8338
 Frc consts  --      1.0883                 1.5877                 1.0288
 IR Inten    --      9.5549                99.4199                45.5076

                     28                     29                     30
                      A                      A                      A
 Frequencies --    623.3194               652.4345               713.0700
 Red. masses --      5.8893                 1.7986                 2.1897
 Frc consts  --      1.3481                 0.4511                 0.6560
 IR Inten    --     45.6823               712.7695               718.7334

                     31                     32                     33
                      A                      A                      A
 Frequencies --    722.0321               814.1513               851.4788
 Red. masses --      5.0119                 8.9819                 6.6651
 Frc consts  --      1.5395                 3.5078                 2.8471
 IR Inten    --     28.2717                43.3525               172.4878

                     34                     35                     36
                      A                      A                      A
 Frequencies --    905.2686               922.7838               927.2995
 Red. masses --      2.5239                 4.1180                 1.7120
 Frc consts  --      1.2186                 2.0660                 0.8673
 IR Inten    --     96.4638                71.1919                 6.8758

                     37                     38                     39
                      A                      A                      A
 Frequencies --    937.6188              1063.2115              1109.4921
 Red. masses --      1.3816                 7.5619                 1.2664
 Frc consts  --      0.7156                 5.0364                 0.9185
 IR Inten    --      0.7318                44.2493                 0.9035

                     40                     41                     42
                      A                      A                      A
 Frequencies --   1127.1858              1138.8299              1145.5021
 Red. masses --      1.2482                 5.3438                15.0622
 Frc consts  --      0.9344                 4.0834                11.6447
 IR Inten    --      4.6824               109.6424               734.9538

                     43                     44                     45
                      A                      A                      A
 Frequencies --   1180.7998              1205.8059              1246.2859
 Red. masses --      2.1317                 6.4116                 1.4911
 Frc consts  --      1.7511                 5.4925                 1.3646
 IR Inten    --     35.0128               218.8732                 8.0637

                     46                     47                     48
                      A                      A                      A
 Frequencies --   1312.3347              1317.3890              1329.0248
 Red. masses --     11.6621                12.6010                10.1624
 Frc consts  --     11.8336                12.8850                10.5758
 IR Inten    --    117.3483               568.3899               435.8835

                     49                     50                     51
                      A                      A                      A
 Frequencies --   1437.6494              1467.9985              1586.9079
 Red. masses --      3.4467                 3.4149                 1.1081
 Frc consts  --      4.1973                 4.3360                 1.6441
 IR Inten    --     66.7903               129.1951               109.2713

                     52                     53                     54
                      A                      A                      A
 Frequencies --   1588.5452              1641.4209              1654.2497
 Red. masses --      1.0993                 9.0850                 6.4470
 Frc consts  --      1.6344                14.4217                10.3946
 IR Inten    --    111.0314                 3.9531                28.8046

                     55                     56                     57
                      A                      A                      A
 Frequencies --   3249.1571              3249.7357              3484.6455
 Red. masses --      1.0925                 1.0944                 1.0484
 Frc consts  --      6.7951                 6.8097                 7.5006
 IR Inten    --     36.8053                26.1695               155.4974

                     58                     59                     60
                      A                      A                      A
 Frequencies --   3503.4155              3586.6326              3614.4017
 Red. masses --      1.0474                 1.0998                 1.1024
 Frc consts  --      7.5742                 8.3356                 8.4851
 IR Inten    --    193.2405               168.1111               202.7818

 - Thermochemistry -
 -------------------
 Temperature   298.150 Kelvin.  Pressure   1.00000 Atm.
 Atom     1 has atomic number  6 and mass  12.00000

 Molecular mass:   303.91461 amu.
 Principal axes and moments of inertia in atomic units:
                           1         2         3
     Eigenvalues --  3983.230896665.909299895.04575
           X            0.99986  -0.01456  -0.00801
           Y            0.01454   0.99989  -0.00249
           Z            0.00805   0.00237   0.99996
 This molecule is an asymmetric top.
 Rotational symmetry number  1.
 Warning -- assumption of classical behavior for rotation
           may cause significant error
 Rotational temperatures (Kelvin)      0.02174     0.01299     0.00875
 Rotational constants (GHZ):           0.45308     0.27074     0.18239
 Zero-point vibrational energy     358816.3 (Joules/Mol)
                                   85.75916 (Kcal/Mol)
 Warning -- explicit consideration of  27 degrees of freedom as
           vibrations may cause significant error
 Vibrational temperatures:     44.89    60.89    95.14   121.64   152.22
          (Kelvin)            219.44   231.31   308.48   317.81   348.54
                              358.31   400.69   411.81   438.98   485.45
                              498.98   557.70   619.17   658.61   672.87
                              685.51   720.50   759.78   802.52   809.37
                              842.24   864.76   896.82   938.71  1025.95
                             1038.84  1171.38  1225.09  1302.48  1327.68
                             1334.18  1349.02  1529.72  1596.31  1621.77
                             1638.52  1648.12  1698.91  1734.89  1793.13
                             1888.16  1895.43  1912.17  2068.46  2112.12
                             2283.21  2285.56  2361.64  2380.10  4674.81
                             4675.64  5013.63  5040.63  5160.36  5200.32

 Zero-point correction=                           0.136666 (Hartree/Particle)
 Thermal correction to Energy=                    0.152393
 Thermal correction to Enthalpy=                  0.153338
 Thermal correction to Gibbs Free Energy=         0.092121
 Sum of electronic and zero-point Energies=          -2358.816742
 Sum of electronic and thermal Energies=             -2358.801014
 Sum of electronic and thermal Enthalpies=           -2358.800070
 Sum of electronic and thermal Free Energies=        -2358.861286

                     E (Thermal)             CV                S
                      KCal/Mol        Cal/Mol-Kelvin    Cal/Mol-Kelvin
 Total                   95.628             57.944            128.840
 Electronic               0.000              0.000              0.000
 Translational            0.889              2.981             43.031
 Rotational               0.889              2.981             33.929
 Vibrational             93.851             51.982             51.880
 Vibration     1          0.594              1.983              5.752
 Vibration     2          0.595              1.980              5.147
 Vibration     3          0.598              1.970              4.266
 Vibration     4          0.601              1.960              3.782
 Vibration     5          0.605              1.945              3.345
 Vibration     6          0.619              1.900              2.641
 Vibration     7          0.622              1.890              2.541
 Vibration     8          0.644              1.819              2.006
 Vibration     9          0.648              1.809              1.952
 Vibration    10          0.658              1.776              1.786
 Vibration    11          0.662              1.764              1.737
 Vibration    12          0.679              1.713              1.543
 Vibration    13          0.684              1.699              1.496
 Vibration    14          0.696              1.664              1.389
 Vibration    15          0.718              1.601              1.224
 Vibration    16          0.725              1.582              1.181
 Vibration    17          0.756              1.497              1.009
 Vibration    18          0.792              1.404              0.858
 Vibration    19          0.816              1.344              0.773
 Vibration    20          0.825              1.322              0.744
 Vibration    21          0.833              1.302              0.720
 Vibration    22          0.856              1.248              0.656
 Vibration    23          0.883              1.188              0.592
 Vibration    24          0.913              1.123              0.528
 Vibration    25          0.918              1.112              0.519
 Vibration    26          0.942              1.063              0.475
 Vibration    27          0.959              1.030              0.448

 Optimization completed.
    -- Stationary point found.
 Normal termination of Gaussian 16 at Sat Jul  2 14:49:39 2022.
