 Gaussian 16, Revision C.01,
 Gaussian 16:  ES64L-G16RevC.01  3-Jul-2019

 -----------------------------------------------------
 #m062X/gen 6D OPT Freq=noraman SCRF=(SMD,Solvent=h2o)
 -----------------------------------------------------

 ----------------
 HA.31.smd.a1.smd
 ----------------
 Symbolic Z-matrix:
 Charge =  0 Multiplicity = 1

 SCF Done:  E(RM062X) =  -1991.61397697     A.U. after   16 cycles
 Optimization completed.
    -- Stationary point found.
 Normal termination of Gaussian 16 at Fri Jul  1 00:19:31 2022.

 ------------------------------------------------------------------
 #N Geom=AllCheck Guess=TCheck SCRF=Check GenChk RM062X/ChkBas Freq
 ------------------------------------------------------------------

 Structure from the checkpoint file:  "/jobfs/48970333.gadi-pbs/Gau-1597628.chk"
 ----------------
 HA.31.smd.a1.smd
 ----------------
 Charge =  0 Multiplicity = 1

                         Standard orientation:
 ---------------------------------------------------------------------
 Center     Atomic      Atomic             Coordinates (Angstroms)
 Number     Number       Type             X           Y           Z
 ---------------------------------------------------------------------
      1          6           0        1.165008   -0.094914   -0.062476
      2          6           0        1.163311    1.308321    0.019297
      3         17           0        2.644824    2.210459    0.084259
      4          6           0       -0.023474    2.015329    0.058646
      5          1           0       -0.017396    3.099110    0.107552
      6          6           0       -1.256507    1.346338    0.022001
      7          6           0       -1.225157   -0.057563   -0.031423
      8         16           0       -2.733188   -0.937634    0.114360
      9          6           0       -0.038589   -0.781644   -0.077990
     10          1           0       -0.047270   -1.866929   -0.128311
     11         16           0        2.666369   -1.066334   -0.162939
     12          8           0        2.242016   -2.461882   -0.188077
     13          8           0        3.477494   -0.539144   -1.254562
     14          7           0        3.532102   -0.868144    1.215949
     15          1           0        3.023109   -1.167676    2.050094
     16          1           0        3.918911    0.070510    1.321999
     17          7           0       -2.409372    2.124260   -0.003659
     18          6           0       -3.531001    1.564538   -0.296268
     19          7           0       -3.737996    0.226986   -0.538261
     20          8           0       -2.775405   -2.109831   -0.749719
     21          8           0       -3.053580   -1.130282    1.525049
     22          1           0       -4.420099    2.176064   -0.419913
     23          1           0       -4.689035   -0.080415   -0.757010
 ---------------------------------------------------------------------

 SCF Done:  E(RM062X) =  -1991.61397697     A.U. after    1 cycles

 The electronic state is 1-A.
 Alpha  occ. eigenvalues -- -102.70222 -90.20589 -90.19461 -19.68054 -19.67805
 Alpha  occ. eigenvalues --  -19.66942 -19.66888 -14.84564 -14.81020 -14.79013
 Alpha  occ. eigenvalues --  -10.66971 -10.66369 -10.64487 -10.62633 -10.62441
 Alpha  occ. eigenvalues --  -10.61559 -10.59446  -9.84868  -8.51560  -8.50359
 Alpha  occ. eigenvalues --   -7.57280  -7.56605  -7.56571  -6.43815  -6.43700
 Alpha  occ. eigenvalues --   -6.43617  -6.42556  -6.42548  -6.42457  -1.28247
 Alpha  occ. eigenvalues --   -1.27173  -1.16222  -1.15597  -1.12912  -1.05309
 Alpha  occ. eigenvalues --   -1.04122  -1.02627  -0.98078  -0.91154  -0.89333
 Alpha  occ. eigenvalues --   -0.81978  -0.78873  -0.75940  -0.73192  -0.68782
 Alpha  occ. eigenvalues --   -0.66793  -0.65694  -0.63885  -0.62655  -0.60585
 Alpha  occ. eigenvalues --   -0.59591  -0.58464  -0.58291  -0.56119  -0.54899
 Alpha  occ. eigenvalues --   -0.54260  -0.52776  -0.51443  -0.49794  -0.48741
 Alpha  occ. eigenvalues --   -0.46090  -0.45696  -0.44921  -0.43125  -0.42617
 Alpha  occ. eigenvalues --   -0.42165  -0.41931  -0.41664  -0.41354  -0.40354
 Alpha  occ. eigenvalues --   -0.39065  -0.38501  -0.37188  -0.33865  -0.31827
 Alpha virt. eigenvalues --   -0.05518  -0.03090   0.00495   0.01554   0.02151
 Alpha virt. eigenvalues --    0.02939   0.03091   0.03288   0.03629   0.04275
 Alpha virt. eigenvalues --    0.04816   0.05191   0.05940   0.06575   0.06832

 Mulliken charges:
               1
     1  C   -1.866083
     2  C    1.178579
     3  Cl   0.274695
     4  C   -1.263919
     5  H    0.304728
     6  C    0.419916
     7  C   -0.074378
     8  S    1.782914
     9  C   -0.377841
    10  H    0.330008
    11  S    1.440157
    12  O   -0.647438
    13  O   -0.519141
    14  N   -0.966824
    15  H    0.513084
    16  H    0.494992
    17  N   -0.263041
    18  C    0.170797
    19  N   -0.722408
    20  O   -0.578931
    21  O   -0.501099
    22  H    0.298134
    23  H    0.573097
 Sum of Mulliken charges =  -0.00000

 Dipole moment (field-independent basis, Debye):
    X=             -5.4998    Y=              7.5812    Z=              2.7967  Tot=              9.7747
 Quadrupole moment (field-independent basis, Debye-Ang):
   XX=           -102.8665   YY=           -134.2274   ZZ=           -122.3435
   XY=             -3.3190   XZ=             28.4263   YZ=             -4.0649

  Exact polarizability:     311.496       6.622     240.577       5.986       2.234     149.357
 Approx polarizability:     257.449      10.306     219.956       3.948       3.346     144.823

                      1                      2                      3
                      A                      A                      A
 Frequencies --     41.8311                55.1556                79.9130
 Red. masses --     10.6178                 6.8196                 9.8967
 Frc consts  --      0.0109                 0.0122                 0.0372
 IR Inten    --      9.1199                13.2328                 2.4679

                      4                      5                      6
                      A                      A                      A
 Frequencies --    101.4503               128.6814               182.6026
 Red. masses --      7.8940                12.0955                 8.7616
 Frc consts  --      0.0479                 0.1180                 0.1721
 IR Inten    --      8.2557                 2.2442                10.5822

                      7                      8                      9
                      A                      A                      A
 Frequencies --    192.6109               193.5723               245.3798
 Red. masses --     12.4222                 5.3073                 9.0163
 Frc consts  --      0.2715                 0.1172                 0.3199
 IR Inten    --      3.0980                12.9980                16.0186

                     10                     11                     12
                      A                      A                      A
 Frequencies --    253.8940               286.7371               300.7361
 Red. masses --      7.8642                 3.3071                 2.3149
 Frc consts  --      0.2987                 0.1602                 0.1234
 IR Inten    --      0.9512                15.3410                18.2532

                     13                     14                     15
                      A                      A                      A
 Frequencies --    318.1979               353.4577               375.1513
 Red. masses --      5.6736                 3.2380                 9.0459
 Frc consts  --      0.3385                 0.2383                 0.7501
 IR Inten    --     19.4198                22.3050                32.0063

                     16                     17                     18
                      A                      A                      A
 Frequencies --    423.1743               442.8648               452.4879
 Red. masses --      5.0805                 4.2689                 3.8040
 Frc consts  --      0.5360                 0.4933                 0.4589
 IR Inten    --      5.7828                98.9634                43.1578

                     19                     20                     21
                      A                      A                      A
 Frequencies --    469.6403               493.3432               496.0609
 Red. masses --      6.4458                 3.4394                 2.8508
 Frc consts  --      0.8376                 0.4932                 0.4133
 IR Inten    --     45.9217                16.8299               205.0756

                     22                     23                     24
                      A                      A                      A
 Frequencies --    524.8765               539.7862               552.6261
 Red. masses --      6.7314                 7.5974                 4.7646
 Frc consts  --      1.0926                 1.3042                 0.8573
 IR Inten    --    113.5617                63.4060                35.4145

                     25                     26                     27
                      A                      A                      A
 Frequencies --    561.7701               583.5159               661.0342
 Red. masses --      4.3827                 7.9283                 3.6824
 Frc consts  --      0.8149                 1.5905                 0.9480
 IR Inten    --     39.3442                47.3610               158.2293

                     28                     29                     30
                      A                      A                      A
 Frequencies --    677.2886               705.7820               718.2403
 Red. masses --      7.1713                 2.5751                 7.0001
 Frc consts  --      1.9382                 0.7558                 2.1276
 IR Inten    --      0.7913               681.3066                27.1665

                     31                     32                     33
                      A                      A                      A
 Frequencies --    754.3570               808.7828               896.5556
 Red. masses --      4.1308                 7.0174                 3.6652
 Frc consts  --      1.3850                 2.7045                 1.7358
 IR Inten    --      9.6114               105.2460                29.5950

                     34                     35                     36
                      A                      A                      A
 Frequencies --    908.9909               915.5385               936.1586
 Red. masses --      3.0256                 1.8478                 1.4429
 Frc consts  --      1.4729                 0.9125                 0.7451
 IR Inten    --     17.4420                48.6035                37.6713

                     37                     38                     39
                      A                      A                      A
 Frequencies --    961.1515               998.0475              1095.5260
 Red. masses --      7.9323                 1.4409                 6.0627
 Frc consts  --      4.3175                 0.8457                 4.2871
 IR Inten    --    309.9743                 9.7397               257.5982

                     40                     41                     42
                      A                      A                      A
 Frequencies --   1118.3494              1136.2289              1144.2199
 Red. masses --      3.2151                 1.2720                 4.5666
 Frc consts  --      2.3692                 0.9676                 3.5226
 IR Inten    --    189.8825                 8.3835               225.2190

                     43                     44                     45
                      A                      A                      A
 Frequencies --   1164.1911              1184.5828              1260.3055
 Red. masses --      2.5396                 8.7695                 2.2807
 Frc consts  --      2.0280                 7.2503                 2.1343
 IR Inten    --    187.0730               289.7520               103.0508

                     46                     47                     48
                      A                      A                      A
 Frequencies --   1283.0434              1300.0219              1322.9057
 Red. masses --      1.3970                19.3382                10.7714
 Frc consts  --      1.3550                19.2561                11.1066
 IR Inten    --     38.2512               503.4460               525.1852

                     49                     50                     51
                      A                      A                      A
 Frequencies --   1341.2309              1410.3876              1423.6442
 Red. masses --      9.0777                 3.4499                 1.6999
 Frc consts  --      9.6213                 4.0433                 2.0300
 IR Inten    --     50.4733                97.9229               442.7904

                     52                     53                     54
                      A                      A                      A
 Frequencies --   1454.1061              1507.2592              1594.4780
 Red. masses --      1.8476                 3.1430                 1.1016
 Frc consts  --      2.3017                 4.2069                 1.6501
 IR Inten    --     20.1936               159.8876               124.3590

                     55                     56                     57
                      A                      A                      A
 Frequencies --   1611.4264              1657.0784              1694.5332
 Red. masses --      9.6075                 7.0876                 7.2643
 Frc consts  --     14.6988                11.4666                12.2899
 IR Inten    --    144.2063               802.2509               224.8666

                     58                     59                     60
                      A                      A                      A
 Frequencies --   3245.8379              3260.0595              3263.0938
 Red. masses --      1.0928                 1.0941                 1.0959
 Frc consts  --      6.7831                 6.8509                 6.8751
 IR Inten    --     35.8134                 7.3522                 0.6979

                     61                     62                     63
                      A                      A                      A
 Frequencies --   3499.0133              3520.3171              3603.6974
 Red. masses --      1.0482                 1.0793                 1.1002
 Frc consts  --      7.5614                 7.8805                 8.4185
 IR Inten    --    157.8005               466.3237               169.3308

 - Thermochemistry -
 -------------------
 Temperature   298.150 Kelvin.  Pressure   1.00000 Atm.
 Atom     1 has atomic number  6 and mass  12.00000

 Molecular mass:   294.94883 amu.
 Principal axes and moments of inertia in atomic units:
                           1         2         3
     Eigenvalues --  2700.003167501.393579443.94466
           X            0.99987  -0.01332   0.00870
           Y            0.01337   0.99990  -0.00530
           Z           -0.00863   0.00542   0.99995
 This molecule is an asymmetric top.
 Rotational symmetry number  1.
 Warning -- assumption of classical behavior for rotation
           may cause significant error
 Rotational temperatures (Kelvin)      0.03208     0.01155     0.00917
 Rotational constants (GHZ):           0.66842     0.24059     0.19110
 Zero-point vibrational energy     386914.1 (Joules/Mol)
                                   92.47468 (Kcal/Mol)
 Warning -- explicit consideration of  26 degrees of freedom as
           vibrations may cause significant error
 Vibrational temperatures:     60.19    79.36   114.98   145.96   185.14
          (Kelvin)            262.72   277.12   278.51   353.05   365.30
                              412.55   432.69   457.82   508.55   539.76
                              608.85   637.18   651.03   675.71   709.81
                              713.72   755.18   776.63   795.11   808.26
                              839.55   951.08   974.47  1015.46  1033.39
                             1085.35  1163.66  1289.94  1307.84  1317.26
                             1346.92  1382.88  1435.97  1576.22  1609.06
                             1634.78  1646.28  1675.01  1704.35  1813.30
                             1846.01  1870.44  1903.37  1929.73  2029.23
                             2048.31  2092.13  2168.61  2294.10  2318.48
                             2384.17  2438.06  4670.04  4690.50  4694.86
                             5034.30  5064.95  5184.92

 Zero-point correction=                           0.147368 (Hartree/Particle)
 Thermal correction to Energy=                    0.162321
 Thermal correction to Enthalpy=                  0.163265
 Thermal correction to Gibbs Free Energy=         0.104586
 Sum of electronic and zero-point Energies=          -1991.466609
 Sum of electronic and thermal Energies=             -1991.451656
 Sum of electronic and thermal Enthalpies=           -1991.450712
 Sum of electronic and thermal Free Energies=        -1991.509391

                     E (Thermal)             CV                S
                      KCal/Mol        Cal/Mol-Kelvin    Cal/Mol-Kelvin
 Total                  101.858             56.862            123.501
 Electronic               0.000              0.000              0.000
 Translational            0.889              2.981             42.942
 Rotational               0.889              2.981             33.614
 Vibrational            100.080             50.901             46.945
 Vibration     1          0.594              1.980              5.170
 Vibration     2          0.596              1.976              4.623
 Vibration     3          0.600              1.963              3.893
 Vibration     4          0.604              1.948              3.426
 Vibration     5          0.611              1.925              2.966
 Vibration     6          0.630              1.863              2.302
 Vibration     7          0.635              1.850              2.203
 Vibration     8          0.635              1.849              2.193
 Vibration     9          0.660              1.770              1.764
 Vibration    10          0.665              1.756              1.703
 Vibration    11          0.684              1.698              1.493
 Vibration    12          0.693              1.672              1.413
 Vibration    13          0.705              1.639              1.319
 Vibration    14          0.730              1.568              1.151
 Vibration    15          0.746              1.523              1.059
 Vibration    16          0.785              1.420              0.881
 Vibration    17          0.802              1.377              0.818
 Vibration    18          0.811              1.355              0.788
 Vibration    19          0.827              1.317              0.739
 Vibration    20          0.849              1.265              0.675
 Vibration    21          0.852              1.259              0.668
 Vibration    22          0.880              1.195              0.599
 Vibration    23          0.895              1.162              0.566
 Vibration    24          0.908              1.134              0.539
 Vibration    25          0.917              1.114              0.520
 Vibration    26          0.940              1.067              0.479

 Optimization completed.
    -- Stationary point found.
 Normal termination of Gaussian 16 at Fri Jul  1 00:30:23 2022.
