 Gaussian 16, Revision C.01,
 Gaussian 16:  ES64L-G16RevC.01  3-Jul-2019

 -----------------------------------------------------
 #m062X/gen 6D OPT Freq=noraman SCRF=(SMD,Solvent=h2o)
 -----------------------------------------------------

 ----------------
 HA.39.smd.a2.smd
 ----------------
 Symbolic Z-matrix:
 Charge =  0 Multiplicity = 1

 SCF Done:  E(RM062X) =  -1043.85744960     A.U. after   15 cycles
 SCF Done:  E(RM062X) =  -1043.85829900     A.U. after   12 cycles
 SCF Done:  E(RM062X) =  -1043.85839242     A.U. after   12 cycles
 SCF Done:  E(RM062X) =  -1043.85842405     A.U. after   11 cycles
 SCF Done:  E(RM062X) =  -1043.85843920     A.U. after   11 cycles
 SCF Done:  E(RM062X) =  -1043.85844382     A.U. after   11 cycles
 SCF Done:  E(RM062X) =  -1043.85844621     A.U. after    9 cycles
 SCF Done:  E(RM062X) =  -1043.85844676     A.U. after    9 cycles
 SCF Done:  E(RM062X) =  -1043.85844662     A.U. after    9 cycles
 SCF Done:  E(RM062X) =  -1043.85844646     A.U. after    8 cycles
 Optimization completed.
    -- Stationary point found.
 Normal termination of Gaussian 16 at Sat Jul  2 01:44:40 2022.

 ------------------------------------------------------------------
 #N Geom=AllCheck Guess=TCheck SCRF=Check GenChk RM062X/ChkBas Freq
 ------------------------------------------------------------------

 Structure from the checkpoint file:  "/jobfs/50001020.gadi-pbs/Gau-3067155.chk"
 ----------------
 HA.39.smd.a2.smd
 ----------------
 Charge =  0 Multiplicity = 1

                         Standard orientation:
 ---------------------------------------------------------------------
 Center     Atomic      Atomic             Coordinates (Angstroms)
 Number     Number       Type             X           Y           Z
 ---------------------------------------------------------------------
      1         16           0       -2.620417    0.106427    0.246362
      2          8           0       -3.383853   -0.744329   -0.667449
      3          8           0       -3.173407    0.410791    1.568350
      4          7           0       -2.406838    1.546175   -0.523553
      5          1           0       -2.001261    1.423424   -1.453536
      6          1           0       -1.836907    2.191949    0.027345
      7          6           0       -1.015714   -0.667227    0.557726
      8          7           0       -0.292064   -0.892604   -0.679070
      9          6           0        0.864571   -1.808847   -0.466724
     10          6           0        1.973160   -0.870393   -0.075309
     11          6           0        1.569826    0.400881   -0.456268
     12          8           0        0.304561    0.387976   -1.019378
     13          6           0        3.225433   -1.053347    0.491884
     14          6           0        4.049587    0.066643    0.660782
     15          6           0        3.620602    1.335040    0.262189
     16          6           0        2.357154    1.529209   -0.308842
     17          1           0       -1.267112   -1.627094    1.017402
     18          1           0       -0.491859   -0.029538    1.280545
     19          1           0        0.608542   -2.556667    0.284679
     20          1           0        3.560705   -2.041226    0.794206
     21          1           0        5.032152   -0.052694    1.106569
     22          1           0        4.273116    2.191517    0.403265
     23          1           0        2.008866    2.509326   -0.617772
     24          1           0        1.086615   -2.314086   -1.410948
 ---------------------------------------------------------------------

 SCF Done:  E(RM062X) =  -1043.85844646     A.U. after    1 cycles

 The electronic state is 1-A.
 Alpha  occ. eigenvalues --  -90.17743 -19.71538 -19.66141 -19.66123 -14.84881
 Alpha  occ. eigenvalues --  -14.80283 -10.62155 -10.61703 -10.59359 -10.56723
 Alpha  occ. eigenvalues --  -10.56367 -10.56225 -10.56107 -10.55498  -8.48839
 Alpha  occ. eigenvalues --   -6.41026  -6.41023  -6.40866  -1.26053  -1.24480
 Alpha  occ. eigenvalues --   -1.14447  -1.03328  -1.01030  -0.97136  -0.88998
 Alpha  occ. eigenvalues --   -0.84867  -0.83716  -0.75235  -0.72040  -0.70060
 Alpha  occ. eigenvalues --   -0.68797  -0.63375  -0.61831  -0.60262  -0.59549
 Alpha  occ. eigenvalues --   -0.58024  -0.57678  -0.54540  -0.54011  -0.51952
 Alpha  occ. eigenvalues --   -0.50799  -0.50505  -0.48574  -0.47600  -0.45934
 Alpha  occ. eigenvalues --   -0.43765  -0.42855  -0.42461  -0.42017  -0.40684
 Alpha  occ. eigenvalues --   -0.40031  -0.39769  -0.38013  -0.34144  -0.31374
 Alpha  occ. eigenvalues --   -0.28652
 Alpha virt. eigenvalues --    0.00816   0.01104   0.02502   0.03038   0.03072
 Alpha virt. eigenvalues --    0.03792   0.04501   0.04864   0.05500   0.05817
 Alpha virt. eigenvalues --    0.06035   0.06471   0.06950   0.07717   0.08662

 Mulliken charges:
               1
     1  S    1.507607
     2  O   -0.655216
     3  O   -0.662935
     4  N   -1.154727
     5  H    0.515537
     6  H    0.528606
     7  C   -0.603869
     8  N   -0.319154
     9  C   -0.491176
    10  C    0.801734
    11  C   -0.123432
    12  O   -0.163033
    13  C   -1.159096
    14  C   -0.103992
    15  C   -0.371689
    16  C    0.186058
    17  H    0.339459
    18  H    0.331808
    19  H    0.284851
    20  H    0.260155
    21  H    0.246627
    22  H    0.250716
    23  H    0.268366
    24  H    0.286794
 Sum of Mulliken charges =   0.00000

 Dipole moment (field-independent basis, Debye):
    X=              9.8797    Y=              0.1796    Z=              0.7740  Tot=              9.9116
 Quadrupole moment (field-independent basis, Debye-Ang):
   XX=           -116.5142   YY=            -73.9066   ZZ=            -96.2422
   XY=             -4.0122   XZ=              6.0052   YZ=             -6.0826

  Exact polarizability:     207.625       8.434     199.612      19.539      -5.796     146.685
 Approx polarizability:     170.719       6.083     176.354      18.214      -5.355     134.038

                      1                      2                      3
                      A                      A                      A
 Frequencies --     41.5515                51.6607                93.0177
 Red. masses --      6.7216                 6.1456                 4.5233
 Frc consts  --      0.0068                 0.0097                 0.0231
 IR Inten    --      0.4426                10.8217                11.6481

                      4                      5                      6
                      A                      A                      A
 Frequencies --    141.5454               179.1579               232.5944
 Red. masses --      5.1685                 4.3105                 5.9096
 Frc consts  --      0.0610                 0.0815                 0.1884
 IR Inten    --     15.7677                11.6830                18.3811

                      7                      8                      9
                      A                      A                      A
 Frequencies --    271.6736               286.9968               315.3322
 Red. masses --      2.5825                 2.3743                 2.0907
 Frc consts  --      0.1123                 0.1152                 0.1225
 IR Inten    --     10.9599                21.7312                25.4004

                     10                     11                     12
                      A                      A                      A
 Frequencies --    364.1826               405.7124               426.3575
 Red. masses --      2.3736                 4.7218                 2.9248
 Frc consts  --      0.1855                 0.4579                 0.3133
 IR Inten    --      3.5938                10.9014                 7.3196

                     13                     14                     15
                      A                      A                      A
 Frequencies --    434.3082               461.8591               496.6209
 Red. masses --      3.2668                 9.3887                 3.4940
 Frc consts  --      0.3631                 1.1800                 0.5077
 IR Inten    --     31.6098                72.9055                31.4788

                     16                     17                     18
                      A                      A                      A
 Frequencies --    529.0876               555.7181               562.1658
 Red. masses --      5.5257                 4.9779                 4.4351
 Frc consts  --      0.9114                 0.9057                 0.8258
 IR Inten    --     12.7821                24.4904                19.2945

                     19                     20                     21
                      A                      A                      A
 Frequencies --    618.4723               710.8123               722.6478
 Red. masses --      6.2870                 3.2732                 3.2288
 Frc consts  --      1.4169                 0.9744                 0.9935
 IR Inten    --      7.5122               178.5228                20.9725

                     22                     23                     24
                      A                      A                      A
 Frequencies --    744.3519               771.7102               815.8498
 Red. masses --      3.5432                 1.4133                 3.1049
 Frc consts  --      1.1567                 0.4959                 1.2176
 IR Inten    --    268.4904               127.8532               183.3814

                     25                     26                     27
                      A                      A                      A
 Frequencies --    849.2415               853.9957               878.4297
 Red. masses --      3.6508                 5.2156                 6.2007
 Frc consts  --      1.5513                 2.2411                 2.8191
 IR Inten    --     10.4201                89.0540                50.4554

                     28                     29                     30
                      A                      A                      A
 Frequencies --    888.2279               900.9135               968.0642
 Red. masses --      1.3435                 2.6411                 1.4982
 Frc consts  --      0.6245                 1.2630                 0.8272
 IR Inten    --      4.2223                12.7309                 4.5051

                     31                     32                     33
                      A                      A                      A
 Frequencies --    976.7912               995.2242              1014.1371
 Red. masses --      2.5694                 2.1030                 1.2988
 Frc consts  --      1.4444                 1.2272                 0.7870
 IR Inten    --     18.4182                17.4512                 0.1347

                     34                     35                     36
                      A                      A                      A
 Frequencies --   1046.0996              1048.4108              1113.9370
 Red. masses --      2.2460                 2.3733                 1.9221
 Frc consts  --      1.4481                 1.5370                 1.4052
 IR Inten    --     38.5049                 5.8835                15.4475

                     37                     38                     39
                      A                      A                      A
 Frequencies --   1122.9394              1131.1533              1137.9976
 Red. masses --      1.6495                 1.6009                 3.7835
 Frc consts  --      1.2255                 1.2069                 2.8869
 IR Inten    --     42.6029               113.8078               368.4148

                     40                     41                     42
                      A                      A                      A
 Frequencies --   1165.1990              1199.8384              1254.2148
 Red. masses --      1.1180                 3.2328                 2.6025
 Frc consts  --      0.8943                 2.7420                 2.4120
 IR Inten    --      1.6625                36.2933                71.2443

                     43                     44                     45
                      A                      A                      A
 Frequencies --   1270.7325              1284.7949              1302.0852
 Red. masses --      1.6633                 1.7717                 1.3805
 Frc consts  --      1.5824                 1.7231                 1.3790
 IR Inten    --    124.9267                75.7850                 3.2049

                     46                     47                     48
                      A                      A                      A
 Frequencies --   1307.3570              1346.4578              1377.5790
 Red. masses --      2.9678                 1.7827                 2.8601
 Frc consts  --      2.9886                 1.9042                 3.1979
 IR Inten    --    414.0717                 9.4299                 8.2894

                     49                     50                     51
                      A                      A                      A
 Frequencies --   1384.4911              1445.1869              1505.8307
 Red. masses --      1.4473                 1.1112                 1.9828
 Frc consts  --      1.6345                 1.3674                 2.6489
 IR Inten    --     18.9105                23.9134                58.4962

                     52                     53                     54
                      A                      A                      A
 Frequencies --   1514.1766              1525.0245              1603.9332
 Red. masses --      1.2615                 2.9894                 1.0981
 Frc consts  --      1.7041                 4.0962                 1.6644
 IR Inten    --     18.1210                84.5718               107.9681

                     55                     56                     57
                      A                      A                      A
 Frequencies --   1681.8141              1700.4036              3101.3191
 Red. masses --      7.2160                 8.0414                 1.0615
 Frc consts  --     12.0255                13.6989                 6.0156
 IR Inten    --     46.3235                 7.8358                 5.3486

                     58                     59                     60
                      A                      A                      A
 Frequencies --   3123.3214              3188.4874              3196.2515
 Red. masses --      1.0654                 1.1053                 1.1031
 Frc consts  --      6.1232                 6.6209                 6.6397
 IR Inten    --     21.8928                 9.8817                 1.1818

                     61                     62                     63
                      A                      A                      A
 Frequencies --   3230.4372              3237.6226              3247.8244
 Red. masses --      1.0876                 1.0918                 1.0957
 Frc consts  --      6.6871                 6.7429                 6.8099
 IR Inten    --      0.1281                 8.6145                13.5969

                     64                     65                     66
                      A                      A                      A
 Frequencies --   3254.8019              3496.1397              3592.5240
 Red. masses --      1.0970                 1.0487                 1.0980
 Frc consts  --      6.8469                 7.5524                 8.3490
 IR Inten    --      2.2148               136.1764               158.0556

 - Thermochemistry -
 -------------------
 Temperature   298.150 Kelvin.  Pressure   1.00000 Atm.
 Atom     1 has atomic number 16 and mass  31.97207

 Molecular mass:   214.04121 amu.
 Principal axes and moments of inertia in atomic units:
                           1         2         3
     Eigenvalues --  1135.405435233.276775629.42108
           X            0.99998  -0.00150   0.00674
           Y            0.00171   0.99950  -0.03151
           Z           -0.00669   0.03152   0.99948
 This molecule is an asymmetric top.
 Rotational symmetry number  1.
 Warning -- assumption of classical behavior for rotation
           may cause significant error
 Rotational temperatures (Kelvin)      0.07628     0.01655     0.01539
 Rotational constants (GHZ):           1.58951     0.34486     0.32059
 Zero-point vibrational energy     488655.4 (Joules/Mol)
                                  116.79144 (Kcal/Mol)
 Warning -- explicit consideration of  19 degrees of freedom as
           vibrations may cause significant error
 Vibrational temperatures:     59.78    74.33   133.83   203.65   257.77
          (Kelvin)            334.65   390.88   412.92   453.69   523.98
                              583.73   613.43   624.87   664.51   714.53
                              761.24   799.55   808.83   889.84  1022.70
                             1039.73  1070.96  1110.32  1173.83  1221.87
                             1228.71  1263.86  1277.96  1296.21  1392.83
                             1405.38  1431.91  1459.12  1505.10  1508.43
                             1602.71  1615.66  1627.48  1637.32  1676.46
                             1726.30  1804.54  1828.30  1848.53  1873.41
                             1881.00  1937.25  1982.03  1991.97  2079.30
                             2166.55  2178.56  2194.17  2307.70  2419.76
                             2446.50  4462.11  4493.76  4587.52  4598.69
                             4647.88  4658.22  4672.89  4682.93  5030.17
                             5168.84

 Zero-point correction=                           0.186119 (Hartree/Particle)
 Thermal correction to Energy=                    0.198078
 Thermal correction to Enthalpy=                  0.199022
 Thermal correction to Gibbs Free Energy=         0.147135
 Sum of electronic and zero-point Energies=          -1043.672327
 Sum of electronic and thermal Energies=             -1043.660368
 Sum of electronic and thermal Enthalpies=           -1043.659424
 Sum of electronic and thermal Free Energies=        -1043.711312

                     E (Thermal)             CV                S
                      KCal/Mol        Cal/Mol-Kelvin    Cal/Mol-Kelvin
 Total                  124.296             46.935            109.207
 Electronic               0.000              0.000              0.000
 Translational            0.889              2.981             41.986
 Rotational               0.889              2.981             31.881
 Vibrational            122.518             40.974             35.339
 Vibration     1          0.594              1.981              5.184
 Vibration     2          0.596              1.977              4.753
 Vibration     3          0.602              1.954              3.596
 Vibration     4          0.615              1.912              2.783
 Vibration     5          0.629              1.868              2.337
 Vibration     6          0.653              1.791              1.859
 Vibration     7          0.675              1.725              1.586
 Vibration     8          0.684              1.698              1.492
 Vibration     9          0.703              1.644              1.334
 Vibration    10          0.738              1.546              1.104
 Vibration    11          0.771              1.458              0.942
 Vibration    12          0.788              1.413              0.871
 Vibration    13          0.795              1.395              0.845
 Vibration    14          0.820              1.335              0.761
 Vibration    15          0.852              1.258              0.667
 Vibration    16          0.884              1.186              0.589
 Vibration    17          0.911              1.127              0.532
 Vibration    18          0.918              1.113              0.520
 Vibration    19          0.978              0.993              0.419

 Optimization completed.
    -- Stationary point found.
 Normal termination of Gaussian 16 at Sat Jul  2 01:50:41 2022.
