 Gaussian 16, Revision C.01,
 Gaussian 16:  ES64L-G16RevC.01  3-Jul-2019

 -----------------------------------------------------
 #m062X/gen 6D OPT Freq=noraman SCRF=(SMD,Solvent=h2o)
 -----------------------------------------------------

 ------------------
 HA.36.smd.a2d2.smd
 ------------------
 Symbolic Z-matrix:
 Charge =  0 Multiplicity = 1

 SCF Done:  E(RM062X) =  -1808.47684657     A.U. after   16 cycles
 SCF Done:  E(RM062X) =  -1808.47864946     A.U. after   13 cycles
 SCF Done:  E(RM062X) =  -1808.47906940     A.U. after   14 cycles
 SCF Done:  E(RM062X) =  -1808.47914936     A.U. after   13 cycles
 SCF Done:  E(RM062X) =  -1808.47921914     A.U. after   14 cycles
 SCF Done:  E(RM062X) =  -1808.47925638     A.U. after   12 cycles
 SCF Done:  E(RM062X) =  -1808.47927785     A.U. after   12 cycles
 SCF Done:  E(RM062X) =  -1808.47931122     A.U. after   14 cycles
 SCF Done:  E(RM062X) =  -1808.47927094     A.U. after   14 cycles
 SCF Done:  E(RM062X) =  -1808.47932258     A.U. after   14 cycles
 SCF Done:  E(RM062X) =  -1808.48290077     A.U. after   15 cycles
 SCF Done:  E(RM062X) =  -1808.48315671     A.U. after   14 cycles
 SCF Done:  E(RM062X) =  -1808.48315295     A.U. after   14 cycles
 SCF Done:  E(RM062X) =  -1808.48319482     A.U. after   14 cycles
 SCF Done:  E(RM062X) =  -1808.48320487     A.U. after   12 cycles
 SCF Done:  E(RM062X) =  -1808.48320557     A.U. after   11 cycles
 SCF Done:  E(RM062X) =  -1808.48320330     A.U. after   11 cycles
 SCF Done:  E(RM062X) =  -1808.48320287     A.U. after   10 cycles
 SCF Done:  E(RM062X) =  -1808.48320328     A.U. after    9 cycles
 Optimization completed.
    -- Stationary point found.
 Normal termination of Gaussian 16 at Fri Jul  1 23:40:23 2022.

 ------------------------------------------------------------------
 #N Geom=AllCheck Guess=TCheck SCRF=Check GenChk RM062X/ChkBas Freq
 ------------------------------------------------------------------

 Structure from the checkpoint file:  "/jobfs/49976033.gadi-pbs/Gau-4174003.chk"
 ------------------
 HA.36.smd.a2d2.smd
 ------------------
 Charge =  0 Multiplicity = 1

                         Standard orientation:
 ---------------------------------------------------------------------
 Center     Atomic      Atomic             Coordinates (Angstroms)
 Number     Number       Type             X           Y           Z
 ---------------------------------------------------------------------
      1          6           0       -1.802731    0.015146    0.050250
      2          6           0       -2.339553    1.305880    0.004076
      3         17           0       -3.994490    1.601415   -0.446582
      4          6           0       -1.544664    2.395020    0.336166
      5          1           0       -1.961057    3.396402    0.300596
      6          6           0       -0.218499    2.196852    0.712874
      7          6           0        0.319539    0.912521    0.773693
      8          6           0       -0.479388   -0.178932    0.434581
      9         16           0       -2.749781   -1.440328   -0.389479
     10          8           0       -3.330504   -1.230885   -1.712867
     11          8           0       -1.874233   -2.587580   -0.167143
     12          7           0       -4.004725   -1.612319    0.657926
     13          1           0       -4.718379   -0.889719    0.556195
     14          1           0       -3.697062   -1.704453    1.628159
     15          1           0       -0.080050   -1.188113    0.461209
     16          6           0        1.791535    0.710370    1.130224
     17          7           0        2.021448   -0.573823    1.781105
     18          6           0        2.650918    0.569570   -0.117282
     19          6           0        2.768591   -1.444957    1.046844
     20          6           0        3.214678   -0.698616   -0.158680
     21          8           0        3.012076   -2.613969    1.341987
     22          6           0        2.899249    1.501034   -1.113431
     23          6           0        3.737318    1.112126   -2.162870
     24          6           0        4.300762   -0.169661   -2.207760
     25          6           0        4.044913   -1.098460   -1.198008
     26          8           0        2.291383    1.791678    1.881020
     27          1           0        0.392485    3.057967    0.963225
     28          1           0        1.444064   -0.892230    2.554216
     29          1           0        2.458366    2.493929   -1.084466
     30          1           0        3.953392    1.815715   -2.961236
     31          1           0        4.944042   -0.440672   -3.039166
     32          1           0        4.477823   -2.094408   -1.218921
     33          1           0        1.726362    1.928467    2.662509
 ---------------------------------------------------------------------

 SCF Done:  E(RM062X) =  -1808.48320328     A.U. after    2 cycles

 The electronic state is 1-A.
 Alpha  occ. eigenvalues -- -102.69533 -90.18992 -19.67201 -19.66591 -19.66550
 Alpha  occ. eigenvalues --  -19.64160 -14.80737 -14.79967 -10.67965 -10.67614
 Alpha  occ. eigenvalues --  -10.64901 -10.61688 -10.59139 -10.59058 -10.58367
 Alpha  occ. eigenvalues --  -10.58200 -10.57921 -10.57281 -10.57119 -10.56897
 Alpha  occ. eigenvalues --  -10.56810 -10.56500  -9.84178  -8.49913  -7.56584
 Alpha  occ. eigenvalues --   -7.55920  -7.55891  -6.42110  -6.42104  -6.41997
 Alpha  occ. eigenvalues --   -1.26737  -1.19302  -1.17585  -1.15170  -1.06539
 Alpha  occ. eigenvalues --   -1.03926  -1.02408  -0.97702  -0.96692  -0.89638
 Alpha  occ. eigenvalues --   -0.88134  -0.87244  -0.85824  -0.79189  -0.77775
 Alpha  occ. eigenvalues --   -0.74326  -0.71980  -0.70674  -0.68627  -0.67047
 Alpha  occ. eigenvalues --   -0.65206  -0.62551  -0.62199  -0.60933  -0.58931
 Alpha  occ. eigenvalues --   -0.58141  -0.57626  -0.57024  -0.56728  -0.54502
 Alpha  occ. eigenvalues --   -0.53309  -0.53031  -0.51982  -0.51525  -0.51109
 Alpha  occ. eigenvalues --   -0.50161  -0.49576  -0.47589  -0.45626  -0.45053
 Alpha  occ. eigenvalues --   -0.44904  -0.44471  -0.43300  -0.42599  -0.42449
 Alpha  occ. eigenvalues --   -0.41589  -0.41025  -0.40768  -0.40139  -0.39587
 Alpha  occ. eigenvalues --   -0.38115  -0.35611  -0.34939  -0.33929  -0.33074
 Alpha  occ. eigenvalues --   -0.32180  -0.30837
 Alpha virt. eigenvalues --   -0.02903  -0.02601  -0.00807   0.00645   0.00968
 Alpha virt. eigenvalues --    0.01879   0.02448   0.02924   0.03190   0.04108
 Alpha virt. eigenvalues --    0.04187   0.04474   0.04798   0.05379   0.05712

 Mulliken charges:
               1
     1  C   -2.100348
     2  C    1.195698
     3  Cl   0.241868
     4  C   -0.483659
     5  H    0.288060
     6  C   -0.005742
     7  C   -0.930343
     8  C   -0.108147
     9  S    1.470457
    10  O   -0.528155
    11  O   -0.652784
    12  N   -0.985405
    13  H    0.492955
    14  H    0.510112
    15  H    0.316311
    16  C    1.679230
    17  N   -0.659448
    18  C   -0.294892
    19  C    0.521647
    20  C   -0.170416
    21  O   -0.631447
    22  C   -0.123738
    23  C   -0.220699
    24  C   -0.080195
    25  C   -0.550377
    26  O   -0.655477
    27  H    0.289402
    28  H    0.526623
    29  H    0.279535
    30  H    0.258963
    31  H    0.257085
    32  H    0.272275
    33  H    0.581050
 Sum of Mulliken charges =  -0.00000

 Dipole moment (field-independent basis, Debye):
    X=             -1.8478    Y=             10.8198    Z=              4.9750  Tot=             12.0513
 Quadrupole moment (field-independent basis, Debye-Ang):
   XX=           -147.1477   YY=           -155.3356   ZZ=           -130.3069
   XY=              0.6187   XZ=            -36.0014   YZ=              0.5266

  Exact polarizability:     321.868     -24.267     339.825     -12.229     -10.912     257.025
 Approx polarizability:     272.410     -23.537     296.925      -5.779      -9.637     229.526

                      1                      2                      3
                      A                      A                      A
 Frequencies --     19.2450                38.6739                52.3244
 Red. masses --      7.9847                 7.5049                 8.0582
 Frc consts  --      0.0017                 0.0066                 0.0130
 IR Inten    --      2.6523                 1.4529                 2.1181

                      4                      5                      6
                      A                      A                      A
 Frequencies --     82.5751               101.4668               126.3049
 Red. masses --      7.3182                 5.0322                 5.7274
 Frc consts  --      0.0294                 0.0305                 0.0538
 IR Inten    --      5.9175                 4.4754                 3.8383

                      7                      8                      9
                      A                      A                      A
 Frequencies --    131.1590               143.3089               178.1254
 Red. masses --      8.4369                 6.2908                 9.9968
 Frc consts  --      0.0855                 0.0761                 0.1869
 IR Inten    --     10.6734                 8.1162                 2.6583

                     10                     11                     12
                      A                      A                      A
 Frequencies --    195.5836               241.4665               252.5979
 Red. masses --      5.6029                 2.3696                 5.6492
 Frc consts  --      0.1263                 0.0814                 0.2124
 IR Inten    --     14.3132                26.4293                 9.1663

                     13                     14                     15
                      A                      A                      A
 Frequencies --    266.1513               277.7743               283.8964
 Red. masses --      7.2219                 4.2156                 3.7924
 Frc consts  --      0.3014                 0.1916                 0.1801
 IR Inten    --      2.3751                13.7746                27.0745

                     16                     17                     18
                      A                      A                      A
 Frequencies --    320.8748               330.9612               350.0626
 Red. masses --      3.2762                 4.6039                 4.1144
 Frc consts  --      0.1987                 0.2971                 0.2971
 IR Inten    --      4.1624                32.4212                18.1463

                     19                     20                     21
                      A                      A                      A
 Frequencies --    378.0821               396.3330               425.2675
 Red. masses --      2.5029                 2.0269                 2.9333
 Frc consts  --      0.2108                 0.1876                 0.3126
 IR Inten    --     58.1033                95.0459                24.4773

                     22                     23                     24
                      A                      A                      A
 Frequencies --    427.2095               440.6557               468.9128
 Red. masses --      2.9519                 3.4821                 3.0373
 Frc consts  --      0.3174                 0.3984                 0.3935
 IR Inten    --    105.6576                19.7313                20.8939

                     25                     26                     27
                      A                      A                      A
 Frequencies --    472.8460               490.1446               500.9259
 Red. masses --      1.9514                 4.7053                 5.8548
 Frc consts  --      0.2571                 0.6660                 0.8656
 IR Inten    --    247.6336                11.1018                61.5777

                     28                     29                     30
                      A                      A                      A
 Frequencies --    541.8086               554.6658               572.1970
 Red. masses --      7.3646                 5.5197                 5.3773
 Frc consts  --      1.2738                 1.0005                 1.0373
 IR Inten    --     25.8523                55.8849                23.1692

                     31                     32                     33
                      A                      A                      A
 Frequencies --    576.1757               606.6012               634.5491
 Red. masses --      6.4553                 5.7370                 5.0096
 Frc consts  --      1.2626                 1.2438                 1.1884
 IR Inten    --     42.2276                33.0773                34.7295

                     34                     35                     36
                      A                      A                      A
 Frequencies --    665.6239               674.5848               698.1879
 Red. masses --      2.5048                 5.2548                 4.5905
 Frc consts  --      0.6539                 1.4089                 1.3184
 IR Inten    --    502.4123                16.7112               235.3214

                     37                     38                     39
                      A                      A                      A
 Frequencies --    712.4049               728.8831               751.3461
 Red. masses --      3.9342                 3.7266                 4.4755
 Frc consts  --      1.1764                 1.1665                 1.4886
 IR Inten    --     72.1611                34.0312                48.6286

                     40                     41                     42
                      A                      A                      A
 Frequencies --    783.6384               803.2337               816.6126
 Red. masses --      2.5082                 2.8904                 3.9981
 Frc consts  --      0.9075                 1.0987                 1.5708
 IR Inten    --     29.1073                90.4947                11.0342

                     43                     44                     45
                      A                      A                      A
 Frequencies --    825.9223               870.0676               895.6907
 Red. masses --      3.9380                 1.4431                 3.4681
 Frc consts  --      1.5827                 0.6437                 1.6393
 IR Inten    --     36.5687                47.8437                62.4512

                     46                     47                     48
                      A                      A                      A
 Frequencies --    914.3627               943.1357               980.0258
 Red. masses --      1.4175                 1.5410                 4.0760
 Frc consts  --      0.6983                 0.8076                 2.3065
 IR Inten    --      2.9136                24.9984                47.7174

                     49                     50                     51
                      A                      A                      A
 Frequencies --    997.9254              1014.5844              1036.3757
 Red. masses --      1.4426                 1.3717                 1.3261
 Frc consts  --      0.8464                 0.8319                 0.8392
 IR Inten    --      3.3837                 1.0624                 0.0561

                     52                     53                     54
                      A                      A                      A
 Frequencies --   1046.9839              1049.6271              1086.1431
 Red. masses --      5.3173                 2.1979                 3.0995
 Frc consts  --      3.4342                 1.4267                 2.1544
 IR Inten    --    102.5196                20.0047                63.4593

                     55                     56                     57
                      A                      A                      A
 Frequencies --   1108.3561              1117.7955              1143.3675
 Red. masses --      2.4098                 1.2732                 8.9369
 Frc consts  --      1.7442                 0.9373                 6.8835
 IR Inten    --     35.3921                 8.1773               271.5031

                     58                     59                     60
                      A                      A                      A
 Frequencies --   1167.6707              1171.8934              1174.0329
 Red. masses --      1.3254                 2.2498                 1.5175
 Frc consts  --      1.0647                 1.8204                 1.2324
 IR Inten    --     11.6267               107.9133                14.2195

                     61                     62                     63
                      A                      A                      A
 Frequencies --   1182.3354              1205.9453              1239.7523
 Red. masses --      1.3545                 2.8016                 2.4392
 Frc consts  --      1.1156                 2.4006                 2.2088
 IR Inten    --     25.3268               142.2650               140.7184

                     64                     65                     66
                      A                      A                      A
 Frequencies --   1289.0513              1304.3315              1316.7457
 Red. masses --      1.7676                 1.5851                11.3716
 Frc consts  --      1.7305                 1.5888                11.6165
 IR Inten    --    111.5722                72.9221               554.5667

                     67                     68                     69
                      A                      A                      A
 Frequencies --   1322.9533              1331.3513              1341.6948
 Red. masses --      4.3475                 3.6321                 2.1745
 Frc consts  --      4.4832                 3.7931                 2.3063
 IR Inten    --    142.4279               128.8149               116.2776

                     70                     71                     72
                      A                      A                      A
 Frequencies --   1360.9886              1383.5037              1440.5012
 Red. masses --      3.4378                 4.3173                 3.6491
 Frc consts  --      3.7518                 4.8688                 4.4613
 IR Inten    --     91.7340                61.6212                46.8000

                     73                     74                     75
                      A                      A                      A
 Frequencies --   1452.0396              1517.0960              1522.5645
 Red. masses --      2.3543                 2.8248                 2.7937
 Frc consts  --      2.9247                 3.8306                 3.8157
 IR Inten    --    303.6665                78.2676                78.1853

                     76                     77                     78
                      A                      A                      A
 Frequencies --   1525.9713              1593.8915              1648.6622
 Red. masses --      2.9643                 1.1024                 7.8708
 Frc consts  --      4.0669                 1.6500                12.6047
 IR Inten    --     11.8030               114.5353                46.8221

                     79                     80                     81
                      A                      A                      A
 Frequencies --   1673.3919              1684.4117              1694.9553
 Red. masses --      6.4654                 7.7640                 7.4824
 Frc consts  --     10.6670                12.9788                12.6651
 IR Inten    --     23.2237                 8.6490                75.3869

                     82                     83                     84
                      A                      A                      A
 Frequencies --   1739.1335              3229.1183              3235.6224
 Red. masses --     10.6916                 1.0895                 1.0902
 Frc consts  --     19.0529                 6.6935                 6.7249
 IR Inten    --   1500.4848                 0.5315                 0.6981

                     85                     86                     87
                      A                      A                      A
 Frequencies --   3243.0679              3249.6967              3251.6372
 Red. masses --      1.0945                 1.0908                 1.0981
 Frc consts  --      6.7822                 6.7869                 6.8407
 IR Inten    --      6.7928                 2.6540                11.7141

                     88                     89                     90
                      A                      A                      A
 Frequencies --   3251.9039              3259.9990              3496.8890
 Red. masses --      1.0910                 1.0959                 1.0485
 Frc consts  --      6.7978                 6.8623                 7.5543
 IR Inten    --     10.8063                 1.1027               145.8072

                     91                     92                     93
                      A                      A                      A
 Frequencies --   3601.8722              3606.5068              3740.6318
 Red. masses --      1.0990                 1.0800                 1.0670
 Frc consts  --      8.4007                 8.2768                 8.7960
 IR Inten    --    160.4719               200.7291               160.0563

 - Thermochemistry -
 -------------------
 Temperature   298.150 Kelvin.  Pressure   1.00000 Atm.
 Atom     1 has atomic number  6 and mass  12.00000

 Molecular mass:   338.01281 amu.
 Principal axes and moments of inertia in atomic units:
                           1         2         3
     Eigenvalues --  4338.22832********************
           X            0.99985   0.00751  -0.01537
           Y           -0.00754   0.99997  -0.00184
           Z            0.01536   0.00196   0.99988
 This molecule is an asymmetric top.
 Rotational symmetry number  1.
 Warning -- assumption of classical behavior for rotation
           may cause significant error
 Rotational temperatures (Kelvin)      0.01997     0.00747     0.00672
 Rotational constants (GHZ):           0.41601     0.15570     0.14004
 Zero-point vibrational energy     628013.3 (Joules/Mol)
                                  150.09877 (Kcal/Mol)
 Warning -- explicit consideration of  32 degrees of freedom as
           vibrations may cause significant error
 Vibrational temperatures:     27.69    55.64    75.28   118.81   145.99
          (Kelvin)            181.72   188.71   206.19   256.28   281.40
                              347.42   363.43   382.93   399.66   408.46
                              461.67   476.18   503.66   543.98   570.23
                              611.87   614.66   634.01   674.66   680.32
                              705.21   720.72   779.54   798.04   823.26
                              828.99   872.76   912.97   957.68   970.58
                             1004.54  1024.99  1048.70  1081.02  1127.48
                             1155.67  1174.92  1188.32  1251.83  1288.70
                             1315.56  1356.96  1410.04  1435.79  1459.76
                             1491.11  1506.38  1510.18  1562.72  1594.68
                             1608.26  1645.05  1680.02  1686.09  1689.17
                             1701.12  1735.09  1783.73  1854.66  1876.64
                             1894.50  1903.43  1915.52  1930.40  1958.16
                             1990.55  2072.56  2089.16  2182.76  2190.63
                             2195.53  2293.25  2372.06  2407.64  2423.49
                             2438.66  2502.23  4645.98  4655.34  4666.05
                             4675.59  4678.38  4678.76  4690.41  5031.24
                             5182.29  5188.96  5381.93

 Zero-point correction=                           0.239198 (Hartree/Particle)
 Thermal correction to Energy=                    0.257947
 Thermal correction to Enthalpy=                  0.258891
 Thermal correction to Gibbs Free Energy=         0.191372
 Sum of electronic and zero-point Energies=          -1808.244006
 Sum of electronic and thermal Energies=             -1808.225256
 Sum of electronic and thermal Enthalpies=           -1808.224312
 Sum of electronic and thermal Free Energies=        -1808.291831

                     E (Thermal)             CV                S
                      KCal/Mol        Cal/Mol-Kelvin    Cal/Mol-Kelvin
 Total                  161.864             73.229            142.106
 Electronic               0.000              0.000              0.000
 Translational            0.889              2.981             43.348
 Rotational               0.889              2.981             34.826
 Vibrational            160.087             67.267             63.932
 Vibration     1          0.593              1.986              6.711
 Vibration     2          0.594              1.981              5.326
 Vibration     3          0.596              1.977              4.728
 Vibration     4          0.600              1.961              3.829
 Vibration     5          0.604              1.948              3.426
 Vibration     6          0.611              1.927              3.002
 Vibration     7          0.612              1.922              2.929
 Vibration     8          0.616              1.910              2.759
 Vibration     9          0.629              1.869              2.348
 Vibration    10          0.636              1.846              2.174
 Vibration    11          0.658              1.777              1.792
 Vibration    12          0.664              1.758              1.712
 Vibration    13          0.672              1.735              1.621
 Vibration    14          0.679              1.715              1.547
 Vibration    15          0.682              1.704              1.510
 Vibration    16          0.706              1.634              1.306
 Vibration    17          0.713              1.614              1.255
 Vibration    18          0.727              1.575              1.166
 Vibration    19          0.748              1.517              1.047
 Vibration    20          0.763              1.478              0.976
 Vibration    21          0.787              1.415              0.874
 Vibration    22          0.789              1.411              0.868
 Vibration    23          0.801              1.381              0.825
 Vibration    24          0.826              1.319              0.741
 Vibration    25          0.830              1.310              0.730
 Vibration    26          0.846              1.272              0.683
 Vibration    27          0.856              1.248              0.656
 Vibration    28          0.897              1.158              0.561
 Vibration    29          0.910              1.129              0.535
 Vibration    30          0.928              1.091              0.500
 Vibration    31          0.933              1.083              0.492
 Vibration    32          0.965              1.018              0.438

                           ! Non-Optimized Parameters !
 Normal termination of Gaussian 16 at Sat Jul  2 00:05:24 2022.
