 Gaussian 16, Revision C.01,
 Gaussian 16:  ES64L-G16RevC.01  3-Jul-2019

 -----------------------------------------------------
 #m062X/gen 6D OPT Freq=noraman SCRF=(SMD,Solvent=h2o)
 -----------------------------------------------------

 ------------------
 HA.34.smd.a1c3.smd
 ------------------
 Symbolic Z-matrix:
 Charge =  0 Multiplicity = 1

 SCF Done:  E(RM062X) =  -2516.08053429     A.U. after   16 cycles
 SCF Done:  E(RM062X) =  -2516.08116048     A.U. after   15 cycles
 SCF Done:  E(RM062X) =  -2516.08729926     A.U. after   14 cycles
 SCF Done:  E(RM062X) =  -2516.08853953     A.U. after   14 cycles
 SCF Done:  E(RM062X) =  -2516.08869567     A.U. after   14 cycles
 SCF Done:  E(RM062X) =  -2516.08878025     A.U. after   13 cycles
 SCF Done:  E(RM062X) =  -2516.08880363     A.U. after   12 cycles
 SCF Done:  E(RM062X) =  -2516.08880768     A.U. after   11 cycles
 SCF Done:  E(RM062X) =  -2516.08880830     A.U. after   11 cycles
 SCF Done:  E(RM062X) =  -2516.08880897     A.U. after   11 cycles
 SCF Done:  E(RM062X) =  -2516.08880921     A.U. after   11 cycles
 SCF Done:  E(RM062X) =  -2516.08880935     A.U. after   10 cycles
 Optimization completed.
    -- Stationary point found.
 Normal termination of Gaussian 16 at Fri Jul  1 00:35:55 2022.

 ------------------------------------------------------------------
 #N Geom=AllCheck Guess=TCheck SCRF=Check GenChk RM062X/ChkBas Freq
 ------------------------------------------------------------------

 Structure from the checkpoint file:  "/jobfs/48973613.gadi-pbs/Gau-2031501.chk"
 ------------------
 HA.34.smd.a1c3.smd
 ------------------
 Charge =  0 Multiplicity = 1

                         Standard orientation:
 ---------------------------------------------------------------------
 Center     Atomic      Atomic             Coordinates (Angstroms)
 Number     Number       Type             X           Y           Z
 ---------------------------------------------------------------------
      1          6           0        1.974572   -0.179317   -0.155672
      2          6           0        1.762301    1.199054   -0.343675
      3         17           0        3.055974    2.345211   -0.144563
      4          6           0        0.517713    1.696274   -0.671453
      5          1           0        0.367459    2.763032   -0.805570
      6          6           0       -0.564912    0.811430   -0.820756
      7          6           0       -0.354877   -0.569544   -0.644149
      8          6           0       -1.481112   -1.504701   -0.856404
      9          6           0        0.902943   -1.050670   -0.310620
     10         16           0        3.560575   -0.875575    0.245847
     11          8           0        3.351560   -2.312305    0.409784
     12          8           0        4.546071   -0.407154   -0.726874
     13          7           0        4.056866   -0.315094    1.713659
     14          1           0        3.386248   -0.525696    2.455979
     15          1           0        4.292438    0.678008    1.699284
     16          7           0       -1.799517    1.270125   -1.180545
     17          6           0       -2.982920    0.471763   -0.971799
     18          7           0       -2.669634   -0.924788   -1.169834
     19          1           0       -1.945160    2.275796   -1.178784
     20          8           0       -1.348009   -2.731408   -0.823434
     21          1           0        1.044470   -2.118327   -0.176834
     22          1           0       -3.452220   -1.558754   -1.310099
     23          6           0       -3.622501    0.764597    0.404970
     24          1           0       -3.733717    0.767165   -1.708869
     25          1           0       -3.830349    1.830548    0.497717
     26         17           0       -2.550328    0.307350    1.754146
     27         17           0       -5.183092   -0.096129    0.531135
 ---------------------------------------------------------------------

 SCF Done:  E(RM062X) =  -2516.08880935     A.U. after    2 cycles

 The electronic state is 1-A.
 Alpha  occ. eigenvalues -- -102.69704-102.68583-102.68538 -90.18775 -19.66347
 Alpha  occ. eigenvalues --  -19.66274 -19.64010 -14.81264 -14.81229 -14.80490
 Alpha  occ. eigenvalues --  -10.68684 -10.68054 -10.66495 -10.65595 -10.64018
 Alpha  occ. eigenvalues --  -10.60797 -10.59605 -10.58431 -10.58264  -9.84353
 Alpha  occ. eigenvalues --   -9.83254  -9.83245  -8.49682  -7.56760  -7.56095
 Alpha  occ. eigenvalues --   -7.56062  -7.55658  -7.55648  -7.54982  -7.54972
 Alpha  occ. eigenvalues --   -7.54965  -7.54955  -6.41883  -6.41874  -6.41766
 Alpha  occ. eigenvalues --   -1.26447  -1.18750  -1.14876  -1.11996  -1.04476
 Alpha  occ. eigenvalues --   -1.03517  -1.01900  -1.01330  -0.96493  -0.93272
 Alpha  occ. eigenvalues --   -0.89965  -0.87374  -0.83248  -0.77061  -0.75664
 Alpha  occ. eigenvalues --   -0.73289  -0.72047  -0.67801  -0.64772  -0.64290
 Alpha  occ. eigenvalues --   -0.62055  -0.61453  -0.59653  -0.58870  -0.57707
 Alpha  occ. eigenvalues --   -0.55850  -0.55318  -0.54426  -0.53870  -0.53041
 Alpha  occ. eigenvalues --   -0.51818  -0.51063  -0.50673  -0.49475  -0.48105
 Alpha  occ. eigenvalues --   -0.45021  -0.44559  -0.44282  -0.42410  -0.41433
 Alpha  occ. eigenvalues --   -0.41404  -0.41001  -0.40142  -0.39943  -0.39146
 Alpha  occ. eigenvalues --   -0.38473  -0.38076  -0.37701  -0.36380  -0.34854
 Alpha  occ. eigenvalues --   -0.32877  -0.28532
 Alpha virt. eigenvalues --   -0.03759  -0.01283   0.00487   0.01368   0.01688
 Alpha virt. eigenvalues --    0.02438   0.02956   0.03366   0.03545   0.03989
 Alpha virt. eigenvalues --    0.04494   0.05002   0.05214   0.05313   0.06588

 Mulliken charges:
               1
     1  C   -2.449689
     2  C    1.285485
     3  Cl   0.240407
     4  C   -1.423099
     5  H    0.295591
     6  C    0.323263
     7  C    1.214587
     8  C    0.858363
     9  C   -0.445005
    10  S    1.462343
    11  O   -0.656400
    12  O   -0.523810
    13  N   -0.975486
    14  H    0.509026
    15  H    0.492532
    16  N   -0.547267
    17  C   -0.054021
    18  N   -0.619343
    19  H    0.520974
    20  O   -0.655909
    21  H    0.309953
    22  H    0.528245
    23  C   -0.452722
    24  H    0.315075
    25  H    0.374799
    26  Cl   0.059214
    27  Cl   0.012893
 Sum of Mulliken charges =  -0.00000

 Dipole moment (field-independent basis, Debye):
    X=            -10.3446    Y=             13.0294    Z=              1.1156  Tot=             16.6740
 Quadrupole moment (field-independent basis, Debye-Ang):
   XX=           -156.3291   YY=           -147.3004   ZZ=           -133.5830
   XY=              1.6096   XZ=             25.5355   YZ=             -4.3320

  Exact polarizability:     349.962       5.225     274.291      32.683      -9.057     187.636
 Approx polarizability:     286.542       7.145     247.609      26.347     -10.598     174.759

                      1                      2                      3
                      A                      A                      A
 Frequencies --     26.4926                41.6593                53.7146
 Red. masses --     17.5965                14.9648                13.4959
 Frc consts  --      0.0073                 0.0153                 0.0229
 IR Inten    --      0.6773                 2.7059                 3.0800

                      4                      5                      6
                      A                      A                      A
 Frequencies --     72.0513                81.9472               122.0166
 Red. masses --      8.1873                14.9986                 7.5369
 Frc consts  --      0.0250                 0.0593                 0.0661
 IR Inten    --      5.6158                 1.2600                 9.9406

                      7                      8                      9
                      A                      A                      A
 Frequencies --    144.2158               172.3569               190.5822
 Red. masses --     10.1439                 8.2708                14.9085
 Frc consts  --      0.1243                 0.1448                 0.3190
 IR Inten    --      0.0171                 1.1632                 2.7443

                     10                     11                     12
                      A                      A                      A
 Frequencies --    199.6546               233.6792               242.2602
 Red. masses --      9.4803                 9.4271                 4.7587
 Frc consts  --      0.2227                 0.3033                 0.1646
 IR Inten    --      2.6108                25.0030                27.2277

                     13                     14                     15
                      A                      A                      A
 Frequencies --    261.6395               278.0642               291.6013
 Red. masses --      4.7012                 6.3609                12.1614
 Frc consts  --      0.1896                 0.2898                 0.6093
 IR Inten    --     18.7894                 8.2482                 4.7705

                     16                     17                     18
                      A                      A                      A
 Frequencies --    312.9526               324.5202               388.0638
 Red. masses --      1.9406                11.0632                 6.1181
 Frc consts  --      0.1120                 0.6865                 0.5428
 IR Inten    --     15.3831                 0.7718                29.8240

                     19                     20                     21
                      A                      A                      A
 Frequencies --    397.3199               434.7611               436.0394
 Red. masses --      5.4327                 2.2912                 1.9961
 Frc consts  --      0.5053                 0.2552                 0.2236
 IR Inten    --     29.1895               120.5177               125.4626

                     22                     23                     24
                      A                      A                      A
 Frequencies --    451.8076               486.0948               502.7840
 Red. masses --      2.2448                 6.3298                 7.3685
 Frc consts  --      0.2700                 0.8812                 1.0975
 IR Inten    --     77.5234                20.5884               160.1402

                     25                     26                     27
                      A                      A                      A
 Frequencies --    524.0156               538.6469               549.6316
 Red. masses --      2.9523                 4.3946                 3.5308
 Frc consts  --      0.4776                 0.7512                 0.6284
 IR Inten    --    153.7509                30.2038                81.2212

                     28                     29                     30
                      A                      A                      A
 Frequencies --    581.5819               612.8010               636.2171
 Red. masses --      2.6429                 5.3786                 7.2434
 Frc consts  --      0.5267                 1.1900                 1.7274
 IR Inten    --     76.2145                24.4349               128.6911

                     31                     32                     33
                      A                      A                      A
 Frequencies --    643.1764               671.8390               696.6219
 Red. masses --      6.6272                 4.3890                 4.3414
 Frc consts  --      1.6153                 1.1672                 1.2413
 IR Inten    --     33.2969                70.9678                15.2428

                     34                     35                     36
                      A                      A                      A
 Frequencies --    715.9837               722.0000               779.9452
 Red. masses --      2.8179                 5.1591                 6.3062
 Frc consts  --      0.8511                 1.5845                 2.2602
 IR Inten    --    790.1186                45.8889                83.1114

                     37                     38                     39
                      A                      A                      A
 Frequencies --    789.4694               802.6244               875.9366
 Red. masses --      6.5822                 6.2766                 1.5453
 Frc consts  --      2.4171                 2.3823                 0.6986
 IR Inten    --     37.6909                38.5648                54.6303

                     40                     41                     42
                      A                      A                      A
 Frequencies --    888.8487               919.9378               957.1932
 Red. masses --      2.9194                 5.5859                 1.5035
 Frc consts  --      1.3589                 2.7852                 0.8116
 IR Inten    --     37.4166                57.0946                38.6393

                     43                     44                     45
                      A                      A                      A
 Frequencies --    967.4469               969.5386              1079.3675
 Red. masses --      5.2476                 3.6016                 2.6925
 Frc consts  --      2.8938                 1.9947                 1.8482
 IR Inten    --    200.2862                 8.6513                 8.7966

                     46                     47                     48
                      A                      A                      A
 Frequencies --   1121.1164              1122.9806              1137.9099
 Red. masses --      2.0537                 1.8856                 3.3983
 Frc consts  --      1.5208                 1.4011                 2.5926
 IR Inten    --     49.4985                49.5855               242.2516

                     49                     50                     51
                      A                      A                      A
 Frequencies --   1163.0546              1214.4748              1261.4536
 Red. masses --      2.5060                 2.5708                 1.2626
 Frc consts  --      1.9973                 2.2341                 1.1838
 IR Inten    --    352.2072               111.6058                40.9827

                     52                     53                     54
                      A                      A                      A
 Frequencies --   1280.9723              1291.9065              1307.7062
 Red. masses --      1.1014                 1.3034                 4.8762
 Frc consts  --      1.0648                 1.2817                 4.9131
 IR Inten    --     48.6889                 6.3564               170.5243

                     55                     56                     57
                      A                      A                      A
 Frequencies --   1314.2898              1341.8260              1364.4550
 Red. masses --      3.2474                 2.8349                 3.2898
 Frc consts  --      3.3049                 3.0073                 3.6086
 IR Inten    --    433.5719               231.1501                37.2135

                     58                     59                     60
                      A                      A                      A
 Frequencies --   1395.3912              1399.8207              1461.9737
 Red. masses --      1.9145                 1.8693                 2.4059
 Frc consts  --      2.1963                 2.1581                 3.0297
 IR Inten    --     23.8850                44.2692                23.4869

                     61                     62                     63
                      A                      A                      A
 Frequencies --   1495.8046              1526.1316              1568.8693
 Red. masses --      2.0585                 3.2545                 3.6871
 Frc consts  --      2.7137                 4.4660                 5.3469
 IR Inten    --    164.8364                 1.7009               678.2985

                     64                     65                     66
                      A                      A                      A
 Frequencies --   1593.9577              1639.4696              1677.0098
 Red. masses --      1.1013                 6.8314                 6.8204
 Frc consts  --      1.6485                10.8185                11.3014
 IR Inten    --    118.2426                28.6928              1018.2774

                     67                     68                     69
                      A                      A                      A
 Frequencies --   1709.9017              3151.3097              3202.4553
 Red. masses --      8.3655                 1.0886                 1.0885
 Frc consts  --     14.4106                 6.3695                 6.5774
 IR Inten    --   1478.3667                14.7841                 7.3347

                     70                     71                     72
                      A                      A                      A
 Frequencies --   3243.7373              3259.2827              3495.2051
 Red. masses --      1.0940                 1.0915                 1.0491
 Frc consts  --      6.7817                 6.8315                 7.5514
 IR Inten    --      5.8623                18.7297               138.4859

                     73                     74                     75
                      A                      A                      A
 Frequencies --   3583.5734              3591.9053              3600.4242
 Red. masses --      1.0781                 1.0787                 1.0980
 Frc consts  --      8.1574                 8.1997                 8.3857
 IR Inten    --    207.6017               239.6523               153.2825

 - Thermochemistry -
 -------------------
 Temperature   298.150 Kelvin.  Pressure   1.00000 Atm.
 Atom     1 has atomic number  6 and mass  12.00000

 Molecular mass:   342.93520 amu.
 Principal axes and moments of inertia in atomic units:
                           1         2         3
     Eigenvalues --  3154.82733********************
           X            0.99992  -0.00572   0.01125
           Y            0.00584   0.99993  -0.01037
           Z           -0.01119   0.01043   0.99988
 This molecule is an asymmetric top.
 Rotational symmetry number  1.
 Warning -- assumption of classical behavior for rotation
           may cause significant error
 Rotational temperatures (Kelvin)      0.02745     0.00681     0.00624
 Rotational constants (GHZ):           0.57206     0.14180     0.13006
 Zero-point vibrational energy     476038.8 (Joules/Mol)
                                  113.77600 (Kcal/Mol)
 Warning -- explicit consideration of  29 degrees of freedom as
           vibrations may cause significant error
 Vibrational temperatures:     38.12    59.94    77.28   103.67   117.90
          (Kelvin)            175.55   207.49   247.98   274.21   287.26
                              336.21   348.56   376.44   400.07   419.55
                              450.27   466.91   558.34   571.65   625.52
                              627.36   650.05   699.38   723.39   753.94
                              774.99   790.80   836.77   881.68   915.37
                              925.39   966.63  1002.28  1030.14  1038.80
                             1122.17  1135.87  1154.80  1260.28  1278.86
                             1323.59  1377.19  1391.94  1394.95  1552.97
                             1613.04  1615.72  1637.20  1673.38  1747.36
                             1814.95  1843.03  1858.77  1881.50  1890.97
                             1930.59  1963.15  2007.66  2014.03  2103.45
                             2152.13  2195.76  2257.25  2293.35  2358.83
                             2412.84  2460.17  4534.03  4607.62  4667.01
                             4689.38  5028.82  5155.96  5167.95  5180.21

 Zero-point correction=                           0.181314 (Hartree/Particle)
 Thermal correction to Energy=                    0.198846
 Thermal correction to Enthalpy=                  0.199790
 Thermal correction to Gibbs Free Energy=         0.134279
 Sum of electronic and zero-point Energies=          -2515.907496
 Sum of electronic and thermal Energies=             -2515.889963
 Sum of electronic and thermal Enthalpies=           -2515.889019
 Sum of electronic and thermal Free Energies=        -2515.954530

                     E (Thermal)             CV                S
                      KCal/Mol        Cal/Mol-Kelvin    Cal/Mol-Kelvin
 Total                  124.778             65.608            137.880
 Electronic               0.000              0.000              0.000
 Translational            0.889              2.981             43.391
 Rotational               0.889              2.981             34.676
 Vibrational            123.000             59.646             59.812
 Vibration     1          0.593              1.984              6.076
 Vibration     2          0.594              1.981              5.179
 Vibration     3          0.596              1.976              4.676
 Vibration     4          0.598              1.967              4.097
 Vibration     5          0.600              1.962              3.844
 Vibration     6          0.610              1.931              3.068
 Vibration     7          0.616              1.909              2.747
 Vibration     8          0.626              1.876              2.410
 Vibration     9          0.634              1.853              2.222
 Vibration    10          0.638              1.840              2.136
 Vibration    11          0.654              1.789              1.851
 Vibration    12          0.658              1.776              1.786
 Vibration    13          0.669              1.743              1.651
 Vibration    14          0.679              1.714              1.546
 Vibration    15          0.687              1.689              1.465
 Vibration    16          0.701              1.649              1.347
 Vibration    17          0.709              1.626              1.287
 Vibration    18          0.756              1.496              1.008
 Vibration    19          0.764              1.476              0.973
 Vibration    20          0.795              1.394              0.843
 Vibration    21          0.796              1.392              0.839
 Vibration    22          0.810              1.357              0.790
 Vibration    23          0.842              1.281              0.694
 Vibration    24          0.858              1.244              0.651
 Vibration    25          0.879              1.197              0.601
 Vibration    26          0.894              1.165              0.568
 Vibration    27          0.905              1.140              0.545
 Vibration    28          0.938              1.071              0.482
 Vibration    29          0.972              1.005              0.428

 Optimization completed.
    -- Stationary point found.
 Normal termination of Gaussian 16 at Fri Jul  1 00:48:58 2022.
