 Gaussian 16, Revision C.01,
 Gaussian 16:  ES64L-G16RevC.01  3-Jul-2019

 -----------------------------------------------------
 #m062X/gen 6D OPT Freq=noraman SCRF=(SMD,Solvent=h2o)
 -----------------------------------------------------

 ----------------
 HA.40.smd.a2.smd
 ----------------
 Symbolic Z-matrix:
 Charge =  0 Multiplicity = 1

 SCF Done:  E(RM062X) =  -1123.48055489     A.U. after   16 cycles
 SCF Done:  E(RM062X) =  -1123.48098629     A.U. after   14 cycles
 SCF Done:  E(RM062X) =  -1123.48400921     A.U. after   14 cycles
 SCF Done:  E(RM062X) =  -1123.48450758     A.U. after   14 cycles
 SCF Done:  E(RM062X) =  -1123.48487366     A.U. after   13 cycles
 SCF Done:  E(RM062X) =  -1123.48506490     A.U. after   13 cycles
 SCF Done:  E(RM062X) =  -1123.48511143     A.U. after   11 cycles
 SCF Done:  E(RM062X) =  -1123.48511979     A.U. after   11 cycles
 SCF Done:  E(RM062X) =  -1123.48512589     A.U. after   11 cycles
 SCF Done:  E(RM062X) =  -1123.48512805     A.U. after   11 cycles
 SCF Done:  E(RM062X) =  -1123.48512887     A.U. after   10 cycles
 SCF Done:  E(RM062X) =  -1123.48512929     A.U. after   10 cycles
 SCF Done:  E(RM062X) =  -1123.48512944     A.U. after    9 cycles
 Optimization completed.
    -- Stationary point found.
 Normal termination of Gaussian 16 at Sat Jul  2 01:58:33 2022.

 ------------------------------------------------------------------
 #N Geom=AllCheck Guess=TCheck SCRF=Check GenChk RM062X/ChkBas Freq
 ------------------------------------------------------------------

 Structure from the checkpoint file:  "/jobfs/50001332.gadi-pbs/Gau-4021915.chk"
 ----------------
 HA.40.smd.a2.smd
 ----------------
 Charge =  0 Multiplicity = 1

                         Standard orientation:
 ---------------------------------------------------------------------
 Center     Atomic      Atomic             Coordinates (Angstroms)
 Number     Number       Type             X           Y           Z
 ---------------------------------------------------------------------
      1          6           0        1.076215    0.403298   -0.122867
      2          6           0        1.106153    1.811467   -0.314661
      3          6           0       -0.043507    2.560593   -0.324748
      4          6           0       -1.294762    1.933821   -0.148124
      5          6           0       -1.352399    0.569993    0.008463
      6          6           0       -0.184066   -0.257794    0.010496
      7         16           0       -2.984226   -0.136597    0.163001
      8          8           0       -2.991525   -1.095951    1.269214
      9          8           0       -3.943946    0.967258    0.188547
     10          7           0       -3.335900   -0.999177   -1.201874
     11          1           0       -2.728991   -1.811238   -1.326854
     12          1           0       -3.319127   -0.406769   -2.034737
     13          6           0       -0.215637   -1.677028    0.101267
     14          6           0        0.954442   -2.390456    0.043313
     15          6           0        2.207458   -1.747129   -0.055941
     16          6           0        2.292363   -0.370330   -0.107835
     17          7           0        3.530194    0.315605   -0.181971
     18          6           0        3.851050    1.045147    1.053867
     19          6           0        4.672729   -0.509324   -0.559993
     20          1           0        2.060989    2.299299   -0.475648
     21          1           0       -0.001044    3.633635   -0.479013
     22          1           0       -2.204999    2.523264   -0.150059
     23          1           0       -1.151505   -2.208319    0.224631
     24          1           0        0.923958   -3.474623    0.099660
     25          1           0        3.104533   -2.355469   -0.067590
     26          1           0        3.004694    1.641925    1.394615
     27          1           0        4.696070    1.713068    0.866668
     28          1           0        4.126835    0.345249    1.858461
     29          1           0        4.459600   -1.051055   -1.484563
     30          1           0        4.952267   -1.231977    0.222692
     31          1           0        5.527805    0.149556   -0.730872
 ---------------------------------------------------------------------

 SCF Done:  E(RM062X) =  -1123.48512944     A.U. after    1 cycles

 The electronic state is 1-A.
 Alpha  occ. eigenvalues --  -90.18162 -19.66030 -19.66020 -14.80229 -14.77416
 Alpha  occ. eigenvalues --  -10.60119 -10.59932 -10.59035 -10.57949 -10.57797
 Alpha  occ. eigenvalues --  -10.56946 -10.56452 -10.56351 -10.56260 -10.56081
 Alpha  occ. eigenvalues --  -10.55867 -10.55446  -8.49134  -6.41336  -6.41324
 Alpha  occ. eigenvalues --   -6.41190  -1.26023  -1.14498  -1.05514  -1.03104
 Alpha  occ. eigenvalues --   -0.99326  -0.93718  -0.89266  -0.85433  -0.83663
 Alpha  occ. eigenvalues --   -0.79858  -0.76894  -0.74649  -0.71284  -0.70332
 Alpha  occ. eigenvalues --   -0.67171  -0.62743  -0.61641  -0.59608  -0.59476
 Alpha  occ. eigenvalues --   -0.58188  -0.57111  -0.54842  -0.54204  -0.53135
 Alpha  occ. eigenvalues --   -0.52549  -0.50621  -0.49213  -0.48144  -0.47480
 Alpha  occ. eigenvalues --   -0.46039  -0.45570  -0.44295  -0.44042  -0.42785
 Alpha  occ. eigenvalues --   -0.42528  -0.41881  -0.41229  -0.40761  -0.40007
 Alpha  occ. eigenvalues --   -0.39762  -0.37664  -0.35724  -0.31139  -0.30986
 Alpha  occ. eigenvalues --   -0.26177
 Alpha virt. eigenvalues --   -0.03763  -0.00068   0.01434   0.02640   0.03177
 Alpha virt. eigenvalues --    0.03227   0.04223   0.04314   0.04486   0.04839
 Alpha virt. eigenvalues --    0.04873   0.06110   0.06536   0.07015   0.07568

 Mulliken charges:
               1
     1  C   -0.314651
     2  C   -0.092554
     3  C   -0.164995
     4  C   -0.225414
     5  C   -0.602558
     6  C    0.690608
     7  S    1.477367
     8  O   -0.605172
     9  O   -0.662310
    10  N   -1.015174
    11  H    0.507642
    12  H    0.508372
    13  C   -0.201177
    14  C   -1.231901
    15  C    0.022893
    16  C    0.153595
    17  N   -0.349068
    18  C   -0.472538
    19  C   -0.444235
    20  H    0.275005
    21  H    0.261883
    22  H    0.285782
    23  H    0.252498
    24  H    0.254577
    25  H    0.251422
    26  H    0.240462
    27  H    0.244249
    28  H    0.235669
    29  H    0.240623
    30  H    0.238182
    31  H    0.240917
 Sum of Mulliken charges =  -0.00000

 Dipole moment (field-independent basis, Debye):
    X=              9.0043    Y=             -0.1399    Z=             -4.7914  Tot=             10.2007
 Quadrupole moment (field-independent basis, Debye-Ang):
   XX=           -120.8638   YY=            -94.4394   ZZ=           -110.2006
   XY=             -0.2404   XZ=             17.9675   YZ=              5.1421

  Exact polarizability:     325.593     -12.206     316.071      -0.475      -9.511     169.649
 Approx polarizability:     261.667     -10.623     274.367      -2.555     -10.036     151.491

                      1                      2                      3
                      A                      A                      A
 Frequencies --     42.1014                82.3994               103.8043
 Red. masses --      4.9560                 4.5473                 3.4806
 Frc consts  --      0.0052                 0.0182                 0.0221
 IR Inten    --      4.5421                13.5770                 7.9309

                      4                      5                      6
                      A                      A                      A
 Frequencies --    127.6071               147.1647               168.6336
 Red. masses --      3.3675                 4.2361                 3.5029
 Frc consts  --      0.0323                 0.0541                 0.0587
 IR Inten    --      2.9642                 3.5150                10.9232

                      7                      8                      9
                      A                      A                      A
 Frequencies --    189.1317               227.3094               244.6541
 Red. masses --      2.7276                 3.2815                 1.7386
 Frc consts  --      0.0575                 0.0999                 0.0613
 IR Inten    --      4.8092                 6.7495                 5.9128

                     10                     11                     12
                      A                      A                      A
 Frequencies --    264.0857               290.2523               308.8605
 Red. masses --      2.0053                 3.7075                 2.9673
 Frc consts  --      0.0824                 0.1840                 0.1668
 IR Inten    --     26.4051                 4.3965                18.5075

                     13                     14                     15
                      A                      A                      A
 Frequencies --    334.5147               349.8532               353.2055
 Red. masses --      2.3400                 1.5070                 2.8137
 Frc consts  --      0.1543                 0.1087                 0.2068
 IR Inten    --      3.8677                 0.3587                 5.7183

                     16                     17                     18
                      A                      A                      A
 Frequencies --    370.4053               414.8895               450.2773
 Red. masses --      3.1560                 3.1055                 3.5127
 Frc consts  --      0.2551                 0.3150                 0.4196
 IR Inten    --      9.3621                10.4472                30.8968

                     19                     20                     21
                      A                      A                      A
 Frequencies --    467.7180               476.0741               508.7625
 Red. masses --      6.9603                 3.4084                 4.3376
 Frc consts  --      0.8971                 0.4551                 0.6615
 IR Inten    --     48.0817                 4.1255                11.2987

                     22                     23                     24
                      A                      A                      A
 Frequencies --    536.5457               543.0199               557.2510
 Red. masses --      5.8693                 5.4408                 5.6786
 Frc consts  --      0.9955                 0.9452                 1.0390
 IR Inten    --      8.7555                87.8285                18.7284

                     25                     26                     27
                      A                      A                      A
 Frequencies --    572.8234               604.8461               633.2279
 Red. masses --      6.8848                 3.2959                 5.4329
 Frc consts  --      1.3310                 0.7104                 1.2835
 IR Inten    --     61.8627                 6.5459                45.0720

                     28                     29                     30
                      A                      A                      A
 Frequencies --    699.6345               728.3863               761.6553
 Red. masses --      4.8553                 2.2535                 1.6758
 Frc consts  --      1.4003                 0.7044                 0.5728
 IR Inten    --     11.0467               736.1048                26.3181

                     31                     32                     33
                      A                      A                      A
 Frequencies --    785.4846               817.0246               819.5102
 Red. masses --      5.3054                 3.1610                 1.5448
 Frc consts  --      1.9286                 1.2432                 0.6113
 IR Inten    --     36.1921                78.4128               198.4840

                     34                     35                     36
                      A                      A                      A
 Frequencies --    843.9604               856.7249               899.3230
 Red. masses --      2.7650                 4.5480                 2.2555
 Frc consts  --      1.1603                 1.9668                 1.0748
 IR Inten    --      4.4177                16.3460                47.0196

                     37                     38                     39
                      A                      A                      A
 Frequencies --    933.8080               972.1125               980.0015
 Red. masses --      1.4350                 2.6152                 1.6280
 Frc consts  --      0.7373                 1.4561                 0.9212
 IR Inten    --      0.6578                20.6306                 8.1047

                     40                     41                     42
                      A                      A                      A
 Frequencies --   1019.9246              1035.5869              1078.8330
 Red. masses --      1.3203                 1.3254                 2.4721
 Frc consts  --      0.8092                 0.8375                 1.6952
 IR Inten    --      2.4096                 2.6289                79.7210

                     43                     44                     45
                      A                      A                      A
 Frequencies --   1086.9333              1104.3223              1123.9800
 Red. masses --      1.9688                 2.1729                 1.8200
 Frc consts  --      1.3705                 1.5613                 1.3547
 IR Inten    --     35.9700                32.2332                70.3232

                     46                     47                     48
                      A                      A                      A
 Frequencies --   1133.6264              1140.0721              1153.8684
 Red. masses --      1.5641                 2.2011                 1.7335
 Frc consts  --      1.1843                 1.6856                 1.3598
 IR Inten    --    120.4801               262.6592               124.7080

                     49                     50                     51
                      A                      A                      A
 Frequencies --   1181.3640              1188.4304              1205.5909
 Red. masses --      1.3421                 1.4564                 1.2966
 Frc consts  --      1.1036                 1.2119                 1.1104
 IR Inten    --     10.1864                65.1134                10.1029

                     52                     53                     54
                      A                      A                      A
 Frequencies --   1224.6227              1232.8185              1238.9513
 Red. masses --      2.2843                 1.8535                 1.7831
 Frc consts  --      2.0184                 1.6597                 1.6126
 IR Inten    --     22.0206                12.4857                21.0617

                     55                     56                     57
                      A                      A                      A
 Frequencies --   1268.0495              1304.6715              1354.1583
 Red. masses --      2.5367                 6.4480                 2.4423
 Frc consts  --      2.4032                 6.4666                 2.6387
 IR Inten    --    121.7090               443.4673               101.3891

                     58                     59                     60
                      A                      A                      A
 Frequencies --   1377.2070              1411.8263              1442.7954
 Red. masses --      3.4683                 6.7279                 2.2111
 Frc consts  --      3.8758                 7.9012                 2.7119
 IR Inten    --     11.1903                94.8990                62.3076

                     61                     62                     63
                      A                      A                      A
 Frequencies --   1458.1393              1463.1101              1485.6119
 Red. masses --      1.9241                 1.3783                 1.3038
 Frc consts  --      2.4103                 1.7384                 1.6954
 IR Inten    --     17.8578                12.7940                 9.4062

                     64                     65                     66
                      A                      A                      A
 Frequencies --   1497.5718              1506.4302              1513.8103
 Red. masses --      1.0490                 1.1856                 1.6850
 Frc consts  --      1.3862                 1.5852                 2.2751
 IR Inten    --      6.9854                64.0347                20.0670

                     67                     68                     69
                      A                      A                      A
 Frequencies --   1520.4391              1534.0805              1568.3457
 Red. masses --      1.0823                 1.0890                 4.0701
 Frc consts  --      1.4742                 1.5101                 5.8984
 IR Inten    --     26.5556                45.4064                20.7431

                     70                     71                     72
                      A                      A                      A
 Frequencies --   1611.5353              1650.6785              1671.6161
 Red. masses --      1.1028                 7.4108                 5.5594
 Frc consts  --      1.6874                11.8970                 9.1528
 IR Inten    --    109.1734               184.8663                15.3359

                     73                     74                     75
                      A                      A                      A
 Frequencies --   1699.5321              3034.2007              3036.1708
 Red. masses --      6.7526                 1.0547                 1.0517
 Frc consts  --     11.4917                 5.7211                 5.7119
 IR Inten    --     40.1955               153.1624                83.5960

                     76                     77                     78
                      A                      A                      A
 Frequencies --   3138.5470              3143.4464              3182.7068
 Red. masses --      1.0819                 1.0837                 1.1053
 Frc consts  --      6.2793                 6.3090                 6.5966
 IR Inten    --     49.7785                43.5469                27.1934

                     79                     80                     81
                      A                      A                      A
 Frequencies --   3203.7095              3233.7149              3246.8217
 Red. masses --      1.1011                 1.0902                 1.0895
 Frc consts  --      6.6588                 6.7170                 6.7669
 IR Inten    --     21.7545                11.6777                 3.1758

                     82                     83                     84
                      A                      A                      A
 Frequencies --   3262.9680              3263.6982              3266.1484
 Red. masses --      1.0919                 1.0915                 1.0948
 Frc consts  --      6.8497                 6.8503                 6.8809
 IR Inten    --      5.6373                 2.1286                 4.6659

                     85                     86                     87
                      A                      A                      A
 Frequencies --   3266.4709              3495.9009              3596.9302
 Red. masses --      1.0960                 1.0487                 1.0982
 Frc consts  --      6.8902                 7.5509                 8.3716
 IR Inten    --      3.4600               126.9353               148.9129

 - Thermochemistry -
 -------------------
 Temperature   298.150 Kelvin.  Pressure   1.00000 Atm.
 Atom     1 has atomic number  6 and mass  12.00000

 Molecular mass:   250.07760 amu.
 Principal axes and moments of inertia in atomic units:
                           1         2         3
     Eigenvalues --  1856.020436771.800978031.66898
           X            0.99996   0.00121   0.00890
           Y           -0.00134   0.99990   0.01388
           Z           -0.00888  -0.01389   0.99986
 This molecule is an asymmetric top.
 Rotational symmetry number  1.
 Warning -- assumption of classical behavior for rotation
           may cause significant error
 Rotational temperatures (Kelvin)      0.04667     0.01279     0.01078
 Rotational constants (GHZ):           0.97237     0.26651     0.22470
 Zero-point vibrational energy     659902.1 (Joules/Mol)
                                  157.72038 (Kcal/Mol)
 Warning -- explicit consideration of  26 degrees of freedom as
           vibrations may cause significant error
 Vibrational temperatures:     60.57   118.55   149.35   183.60   211.74
          (Kelvin)            242.63   272.12   327.05   352.00   379.96
                              417.61   444.38   481.29   503.36   508.18
                              532.93   596.93   647.85   672.94   684.96
                              732.00   771.97   781.28   801.76   824.17
                              870.24   911.07  1006.62  1047.99  1095.85
                             1130.14  1175.52  1179.09  1214.27  1232.64
                             1293.93  1343.54  1398.65  1410.00  1467.44
                             1489.98  1552.20  1563.85  1588.87  1617.16
                             1631.04  1640.31  1660.16  1699.72  1709.89
                             1734.58  1761.96  1773.75  1782.57  1824.44
                             1877.13  1948.33  1981.49  2031.30  2075.86
                             2097.94  2105.09  2137.46  2154.67  2167.42
                             2178.04  2187.57  2207.20  2256.50  2318.64
                             2374.96  2405.08  2445.25  4365.54  4368.37
                             4515.67  4522.72  4579.21  4609.42  4652.59
                             4671.45  4694.68  4695.73  4699.26  4699.72
                             5029.82  5175.18

 Zero-point correction=                           0.251343 (Hartree/Particle)
 Thermal correction to Energy=                    0.266406
 Thermal correction to Enthalpy=                  0.267350
 Thermal correction to Gibbs Free Energy=         0.209826
 Sum of electronic and zero-point Energies=          -1123.233786
 Sum of electronic and thermal Energies=             -1123.218724
 Sum of electronic and thermal Enthalpies=           -1123.217780
 Sum of electronic and thermal Free Energies=        -1123.275303

                     E (Thermal)             CV                S
                      KCal/Mol        Cal/Mol-Kelvin    Cal/Mol-Kelvin
 Total                  167.172             60.005            121.069
 Electronic               0.000              0.000              0.000
 Translational            0.889              2.981             42.450
 Rotational               0.889              2.981             32.979
 Vibrational            165.395             54.044             45.640
 Vibration     1          0.595              1.980              5.158
 Vibration     2          0.600              1.961              3.833
 Vibration     3          0.605              1.946              3.382
 Vibration     4          0.611              1.926              2.982
 Vibration     5          0.617              1.906              2.709
 Vibration     6          0.625              1.881              2.451
 Vibration     7          0.633              1.855              2.236
 Vibration     8          0.651              1.799              1.900
 Vibration     9          0.660              1.772              1.769
 Vibration    10          0.671              1.739              1.635
 Vibration    11          0.686              1.692              1.472
 Vibration    12          0.698              1.657              1.368
 Vibration    13          0.716              1.607              1.238
 Vibration    14          0.727              1.576              1.167
 Vibration    15          0.729              1.569              1.152
 Vibration    16          0.742              1.533              1.078
 Vibration    17          0.778              1.438              0.910
 Vibration    18          0.809              1.360              0.795
 Vibration    19          0.825              1.322              0.744
 Vibration    20          0.833              1.303              0.721
 Vibration    21          0.864              1.231              0.637
 Vibration    22          0.892              1.169              0.573
 Vibration    23          0.898              1.155              0.559
 Vibration    24          0.913              1.124              0.529
 Vibration    25          0.929              1.090              0.499
 Vibration    26          0.963              1.022              0.441

                           ! Non-Optimized Parameters !
 Normal termination of Gaussian 16 at Sat Jul  2 02:11:59 2022.
