 Gaussian 16, Revision C.01,
 Gaussian 16:  ES64L-G16RevC.01  3-Jul-2019

 ----------------------------------------------------------------------
 #m062X/gen 6D OPT Freq=Noraman INT(grid=ultrafine) SCRF=(SMD,Solvent=h
 2o)
 ----------------------------------------------------------------------

 --------
 a3 b2 c1
 --------
 Symbolic Z-matrix:
 Charge =  0 Multiplicity = 1

 SCF Done:  E(RM062X) =  -891.323029458     A.U. after   15 cycles
 SCF Done:  E(RM062X) =  -891.328543867     A.U. after   14 cycles
 SCF Done:  E(RM062X) =  -891.332584852     A.U. after   14 cycles
 SCF Done:  E(RM062X) =  -891.334741568     A.U. after   14 cycles
 SCF Done:  E(RM062X) =  -891.337973346     A.U. after   14 cycles
 SCF Done:  E(RM062X) =  -891.338677636     A.U. after   14 cycles
 SCF Done:  E(RM062X) =  -891.338996922     A.U. after   14 cycles
 SCF Done:  E(RM062X) =  -891.339264346     A.U. after   13 cycles
 SCF Done:  E(RM062X) =  -891.339336171     A.U. after   13 cycles
 SCF Done:  E(RM062X) =  -891.339435822     A.U. after   12 cycles
 SCF Done:  E(RM062X) =  -891.339994463     A.U. after   15 cycles
 SCF Done:  E(RM062X) =  -891.339957928     A.U. after   13 cycles
 SCF Done:  E(RM062X) =  -891.340001793     A.U. after   14 cycles
 SCF Done:  E(RM062X) =  -891.339991308     A.U. after   13 cycles
 SCF Done:  E(RM062X) =  -891.340006511     A.U. after   12 cycles
 SCF Done:  E(RM062X) =  -891.340006292     A.U. after   11 cycles
 SCF Done:  E(RM062X) =  -891.340007214     A.U. after   11 cycles
 SCF Done:  E(RM062X) =  -891.340007382     A.U. after   11 cycles
 SCF Done:  E(RM062X) =  -891.340007459     A.U. after    9 cycles
 Optimization completed.
    -- Stationary point found.
 Normal termination of Gaussian 16 at Thu May 19 19:17:12 2022.

 ------------------------------------------------------------------
 #N Geom=AllCheck Guess=TCheck SCRF=Check GenChk RM062X/ChkBas Freq
 ------------------------------------------------------------------

 Structure from the checkpoint file:  "/jobfs/40662277.gadi-pbs/Gau-561050.chk"
 --------
 a3 b2 c1
 --------
 Charge =  0 Multiplicity = 1

                         Standard orientation:
 ---------------------------------------------------------------------
 Center     Atomic      Atomic             Coordinates (Angstroms)
 Number     Number       Type             X           Y           Z
 ---------------------------------------------------------------------
      1          6           0        0.107557    0.000088    0.104548
      2          6           0       -0.580285    1.215957    0.067372
      3          1           0       -0.039305    2.157174    0.098281
      4          6           0       -1.963860    1.214021    0.003648
      5          1           0       -2.510180    2.152899   -0.015760
      6          6           0       -2.677672   -0.000032   -0.029880
      7          7           0       -4.048687   -0.000095   -0.147340
      8          6           0       -1.963769   -1.214024    0.003760
      9          1           0       -2.510005   -2.152953   -0.015563
     10          6           0       -0.580196   -1.215839    0.067497
     11          1           0       -0.039157   -2.157020    0.098490
     12         16           0        1.868206    0.000072    0.121610
     13          8           0        2.326020    1.264665    0.703844
     14          8           0        2.325997   -1.264175    0.704646
     15          7           0        2.437557   -0.000508   -1.436767
     16          1           0        2.132779    0.835868   -1.939545
     17          1           0        2.133382   -0.837702   -1.938547
     18          1           0       -4.523874    0.847389    0.142888
     19          1           0       -4.523809   -0.847527    0.143149
 ---------------------------------------------------------------------

 SCF Done:  E(RM062X) =  -891.340007459     A.U. after    1 cycles

 The electronic state is 1-A.
 Alpha  occ. eigenvalues --  -90.17679 -19.65735 -19.65734 -14.79820 -14.77333
 Alpha  occ. eigenvalues --  -10.61225 -10.58613 -10.57662 -10.57659 -10.55944
 Alpha  occ. eigenvalues --  -10.55943  -8.48674  -6.40877  -6.40865  -6.40724
 Alpha  occ. eigenvalues --   -1.25555  -1.14137  -1.03964  -1.02583  -0.96555
 Alpha  occ. eigenvalues --   -0.86098  -0.85755  -0.75842  -0.71503  -0.68707
 Alpha  occ. eigenvalues --   -0.63662  -0.61175  -0.60375  -0.59143  -0.58162
 Alpha  occ. eigenvalues --   -0.54125  -0.52291  -0.50793  -0.49917  -0.48359
 Alpha  occ. eigenvalues --   -0.46915  -0.43364  -0.41999  -0.41828  -0.41358
 Alpha  occ. eigenvalues --   -0.39700  -0.38637  -0.37660  -0.32469  -0.27199
 Alpha virt. eigenvalues --   -0.00095   0.00743   0.01266   0.02689   0.03743
 Alpha virt. eigenvalues --    0.04011   0.04919   0.05214   0.06204   0.07963
 Alpha virt. eigenvalues --    0.08040   0.08405   0.09244   0.09661   0.10662

 Mulliken charges:
               1
     1  C   -0.512563
     2  C   -0.435681
     3  H    0.276047
     4  C   -0.022444
     5  H    0.258321
     6  C    0.268029
     7  N   -0.931047
     8  C   -0.022343
     9  H    0.258323
    10  C   -0.435540
    11  H    0.276041
    12  S    1.474677
    13  O   -0.665994
    14  O   -0.666022
    15  N   -1.015671
    16  H    0.498462
    17  H    0.498433
    18  H    0.449488
    19  H    0.449481
 Sum of Mulliken charges =   0.00000

 Dipole moment (field-independent basis, Debye):
    X=            -10.0638    Y=             -0.0024    Z=             -4.5043  Tot=             11.0258
 Quadrupole moment (field-independent basis, Debye-Ang):
   XX=            -69.0014   YY=            -67.2517   ZZ=            -72.2160
   XY=             -0.0070   XZ=            -16.2776   YZ=              0.0032

  Exact polarizability:     218.275      -0.000     161.012       2.527      -0.003     102.993
 Approx polarizability:     174.832       0.001     146.079       3.532      -0.004      92.712

                      1                      2                      3
                      A                      A                      A
 Frequencies --     25.6495                87.0159               168.2173
 Red. masses --      4.3260                 5.0734                 6.4722
 Frc consts  --      0.0017                 0.0226                 0.1079
 IR Inten    --     10.1337                12.9092                 3.9127

                      4                      5                      6
                      A                      A                      A
 Frequencies --    202.3756               282.0942               291.6031
 Red. masses --      4.2425                 1.4561                 8.9231
 Frc consts  --      0.1024                 0.0683                 0.4470
 IR Inten    --     11.5997                36.6255                 0.3211

                      7                      8                      9
                      A                      A                      A
 Frequencies --    355.9209               361.9662               388.2157
 Red. masses --      5.3425                 2.1683                 1.2476
 Frc consts  --      0.3988                 0.1674                 0.1108
 IR Inten    --     12.6338                 1.9787                42.0226

                     10                     11                     12
                      A                      A                      A
 Frequencies --    420.5251               422.4736               452.2082
 Red. masses --      2.9422                 2.6412                 1.4428
 Frc consts  --      0.3066                 0.2778                 0.1738
 IR Inten    --      2.8504                10.3119               808.1399

                     13                     14                     15
                      A                      A                      A
 Frequencies --    463.5981               487.1703               538.1144
 Red. masses --      4.0679                 6.2018                 2.7353
 Frc consts  --      0.5151                 0.8672                 0.4667
 IR Inten    --     18.1755               236.3584                60.4403

                     16                     17                     18
                      A                      A                      A
 Frequencies --    550.8153               641.7250               669.9205
 Red. masses --      6.5900                 6.9020                 5.4658
 Frc consts  --      1.1780                 1.6747                 1.4453
 IR Inten    --     98.7355                 0.6338                18.9022

                     19                     20                     21
                      A                      A                      A
 Frequencies --    721.2421               763.3543               840.6846
 Red. masses --      3.6623                 3.0985                 1.2531
 Frc consts  --      1.1224                 1.0638                 0.5218
 IR Inten    --      6.2316               847.8228                 0.3066

                     22                     23                     24
                      A                      A                      A
 Frequencies --    849.2735               856.8258               897.6122
 Red. masses --      2.0382                 3.4135                 1.9470
 Frc consts  --      0.8661                 1.4765                 0.9242
 IR Inten    --     92.5074                96.5483                30.1919

                     25                     26                     27
                      A                      A                      A
 Frequencies --    983.0801               998.5405              1020.9072
 Red. masses --      1.3073                 1.3467                 3.2837
 Frc consts  --      0.7444                 0.7911                 2.0164
 IR Inten    --      0.1596                 0.0154                 9.7017

                     28                     29                     30
                      A                      A                      A
 Frequencies --   1092.9363              1107.5568              1128.4807
 Red. masses --      1.4128                 4.7716                 1.2571
 Frc consts  --      0.9943                 3.4486                 0.9432
 IR Inten    --      0.9352               132.3349                12.3949

                     31                     32                     33
                      A                      A                      A
 Frequencies --   1144.0385              1155.2292              1204.9145
 Red. masses --      3.7356                 1.1576                 1.2496
 Frc consts  --      2.8807                 0.9102                 1.0689
 IR Inten    --    648.9071                26.2188                 7.3989

                     34                     35                     36
                      A                      A                      A
 Frequencies --   1292.7151              1332.0894              1345.1963
 Red. masses --     10.0708                 1.3930                 2.9314
 Frc consts  --      9.9156                 1.4564                 3.1254
 IR Inten    --    536.9422                18.1261               210.2896

                     37                     38                     39
                      A                      A                      A
 Frequencies --   1378.6057              1483.8036              1547.6017
 Red. masses --      4.8422                 3.4226                 2.5780
 Frc consts  --      5.4222                 4.4397                 3.6378
 IR Inten    --     13.6241                 7.2989               139.9707

                     40                     41                     42
                      A                      A                      A
 Frequencies --   1594.4416              1644.3572              1650.1403
 Red. masses --      1.0971                 1.3015                 6.7610
 Frc consts  --      1.6433                 2.0735                10.8468
 IR Inten    --    104.1738                37.6255                31.0228

                     43                     44                     45
                      A                      A                      A
 Frequencies --   1669.2950              3231.4464              3231.9361
 Red. masses --      4.1425                 1.0896                 1.0898
 Frc consts  --      6.8010                 6.7038                 6.7070
 IR Inten    --    634.0415                 5.8839                 2.6047

                     46                     47                     48
                      A                      A                      A
 Frequencies --   3245.6242              3246.5510              3489.5186
 Red. masses --      1.0949                 1.0959                 1.0494
 Frc consts  --      6.7953                 6.8056                 7.5285
 IR Inten    --      0.3100                 4.3306               121.4137

                     49                     50                     51
                      A                      A                      A
 Frequencies --   3568.6396              3587.0780              3673.1407
 Red. masses --      1.0486                 1.0977                 1.1016
 Frc consts  --      7.8678                 8.3217                 8.7570
 IR Inten    --    162.6060               137.0159                97.0126

 - Thermochemistry -
 -------------------
 Temperature   298.150 Kelvin.  Pressure   1.00000 Atm.
 Atom     1 has atomic number  6 and mass  12.00000

 Molecular mass:   172.03065 amu.
 Principal axes and moments of inertia in atomic units:
                           1         2         3
     Eigenvalues --   702.949733214.554603537.06368
           X            0.99993  -0.00001  -0.01159
           Y            0.00001   1.00000   0.00002
           Z            0.01159  -0.00002   0.99993
 This molecule is an asymmetric top.
 Rotational symmetry number  1.
 Warning -- assumption of classical behavior for rotation
           may cause significant error
 Rotational temperatures (Kelvin)      0.12321     0.02694     0.02449
 Rotational constants (GHZ):           2.56738     0.56143     0.51024
 Zero-point vibrational energy     381527.8 (Joules/Mol)
                                   91.18733 (Kcal/Mol)
 Warning -- explicit consideration of  16 degrees of freedom as
           vibrations may cause significant error
 Vibrational temperatures:     36.90   125.20   242.03   291.17   405.87
          (Kelvin)            419.55   512.09   520.79   558.56   605.04
                              607.85   650.63   667.01   700.93   774.23
                              792.50   923.30   963.87  1037.71  1098.30
                             1209.56  1221.92  1232.78  1291.46  1414.43
                             1436.68  1468.86  1572.49  1593.53  1623.63
                             1646.02  1662.12  1733.60  1859.93  1916.58
                             1935.44  1983.51  2134.86  2226.65  2294.05
                             2365.86  2374.18  2401.74  4649.33  4650.04
                             4669.73  4671.06  5020.64  5134.48  5161.01
                             5284.83

 Zero-point correction=                           0.145316 (Hartree/Particle)
 Thermal correction to Energy=                    0.155583
 Thermal correction to Enthalpy=                  0.156527
 Thermal correction to Gibbs Free Energy=         0.108899
 Sum of electronic and zero-point Energies=           -891.194691
 Sum of electronic and thermal Energies=              -891.184425
 Sum of electronic and thermal Enthalpies=            -891.183480
 Sum of electronic and thermal Free Energies=         -891.231109

                     E (Thermal)             CV                S
                      KCal/Mol        Cal/Mol-Kelvin    Cal/Mol-Kelvin
 Total                   97.630             39.783            100.242
 Electronic               0.000              0.000              0.000
 Translational            0.889              2.981             41.335
 Rotational               0.889              2.981             30.459
 Vibrational             95.852             33.821             28.448
 Vibration     1          0.593              1.985              6.140
 Vibration     2          0.601              1.958              3.726
 Vibration     3          0.625              1.882              2.455
 Vibration     4          0.639              1.837              2.111
 Vibration     5          0.681              1.707              1.521
 Vibration     6          0.687              1.689              1.465
 Vibration     7          0.731              1.563              1.140
 Vibration     8          0.736              1.551              1.114
 Vibration     9          0.756              1.495              1.007
 Vibration    10          0.783              1.426              0.890
 Vibration    11          0.785              1.421              0.884
 Vibration    12          0.811              1.356              0.789
 Vibration    13          0.821              1.331              0.756
 Vibration    14          0.843              1.278              0.691
 Vibration    15          0.893              1.166              0.569
 Vibration    16          0.906              1.138              0.542

                           ! Non-Optimized Parameters !
 Normal termination of Gaussian 16 at Thu May 19 19:20:11 2022.
