 Gaussian 16, Revision C.01,
 Gaussian 16:  ES64L-G16RevC.01  3-Jul-2019

 -----------------------------------------------------
 #m062X/gen 6D OPT Freq=noraman SCRF=(SMD,Solvent=h2o)
 -----------------------------------------------------

 -----
 a1 b1
 -----
 Symbolic Z-matrix:
 Charge =  0 Multiplicity = 1

 SCF Done:  E(RM062X) =  -875.290435900     A.U. after   16 cycles
 Optimization completed.
    -- Stationary point found.
 Normal termination of Gaussian 16 at Thu May 19 14:54:09 2022.

 ------------------------------------------------------------------
 #N Geom=AllCheck Guess=TCheck SCRF=Check GenChk RM062X/ChkBas Freq
 ------------------------------------------------------------------

 Structure from the checkpoint file:  "/jobfs/40644951.gadi-pbs/Gau-1767833.chk"
 -----
 a1 b1
 -----
 Charge =  0 Multiplicity = 1

                         Standard orientation:
 ---------------------------------------------------------------------
 Center     Atomic      Atomic             Coordinates (Angstroms)
 Number     Number       Type             X           Y           Z
 ---------------------------------------------------------------------
      1          6           0        0.116782    0.002755   -0.099001
      2          6           0       -0.558719    1.219740   -0.064643
      3          1           0       -0.013522    2.158423   -0.090460
      4          6           0       -1.950324    1.209504   -0.004483
      5          1           0       -2.490038    2.152248    0.017633
      6          6           0       -2.663132    0.005952    0.023960
      7          6           0       -4.166417   -0.004367    0.074457
      8          6           0       -1.951216   -1.201725   -0.006565
      9          1           0       -2.494286   -2.143141    0.013834
     10          6           0       -0.562786   -1.215345   -0.066793
     11          1           0       -0.018900   -2.154773   -0.094711
     12         16           0        1.890125    0.000250   -0.120117
     13          8           0        2.339541   -1.258455   -0.717352
     14          8           0        2.343347    1.269361   -0.691836
     15          7           0        2.443545   -0.016432    1.439195
     16          1           0        2.144039   -0.860379    1.932394
     17          1           0       -4.523382   -0.638307    0.892292
     18          1           0       -4.564008    1.003807    0.214475
     19          1           0        2.143207    0.816456    1.950344
     20          1           0       -4.578169   -0.409636   -0.856374
 ---------------------------------------------------------------------

 SCF Done:  E(RM062X) =  -875.290435900     A.U. after    1 cycles

 The electronic state is 1-A.
 Alpha  occ. eigenvalues --  -90.17980 -19.66036 -19.66035 -14.80112 -10.59588
 Alpha  occ. eigenvalues --  -10.57757 -10.57679 -10.57667 -10.56333 -10.56326
 Alpha  occ. eigenvalues --  -10.53908  -8.48985  -6.41184  -6.41175  -6.41038
 Alpha  occ. eigenvalues --   -1.25921  -1.14491  -1.02965  -0.98489  -0.89643
 Alpha  occ. eigenvalues --   -0.86056  -0.80766  -0.74188  -0.70880  -0.67697
 Alpha  occ. eigenvalues --   -0.63845  -0.61338  -0.59650  -0.55568  -0.54479
 Alpha  occ. eigenvalues --   -0.53369  -0.52086  -0.50277  -0.49165  -0.45113
 Alpha  occ. eigenvalues --   -0.45008  -0.43888  -0.42994  -0.41971  -0.41095
 Alpha  occ. eigenvalues --   -0.40045  -0.39940  -0.37955  -0.32339  -0.31291
 Alpha virt. eigenvalues --   -0.01212   0.00565   0.01355   0.03325   0.03941
 Alpha virt. eigenvalues --    0.03967   0.04886   0.05458   0.05896   0.06612
 Alpha virt. eigenvalues --    0.07369   0.08129   0.09158   0.09345   0.10328

 Mulliken charges:
               1
     1  C   -0.967782
     2  C    0.063948
     3  H    0.278505
     4  C   -0.837529
     5  H    0.256210
     6  C    0.137054
     7  C   -0.606984
     8  C   -0.060936
     9  H    0.256761
    10  C    0.177774
    11  H    0.278431
    12  S    1.567886
    13  O   -0.643788
    14  O   -0.645606
    15  N   -1.006598
    16  H    0.502079
    17  H    0.251290
    18  H    0.237263
    19  H    0.502192
    20  H    0.259830
 Sum of Mulliken charges =  -0.00000

 Dipole moment (field-independent basis, Debye):
    X=             -7.9652    Y=             -0.1203    Z=              5.7004  Tot=              9.7956
 Quadrupole moment (field-independent basis, Debye-Ang):
   XX=            -79.1387   YY=            -69.3348   ZZ=            -70.6376
   XY=              0.1663   XZ=             11.0356   YZ=             -0.1098

  Exact polarizability:     199.363       1.114     169.204       0.180       0.024     108.088
 Approx polarizability:     160.338       0.971     153.463      -1.049       0.050      96.812

                      1                      2                      3
                      A                      A                      A
 Frequencies --     25.9835                46.8049                89.4249
 Red. masses --      4.4066                 1.0846                 3.6581
 Frc consts  --      0.0018                 0.0014                 0.0172
 IR Inten    --      5.7068                 0.5449                 8.2039

                      4                      5                      6
                      A                      A                      A
 Frequencies --    167.8055               203.3425               281.5945
 Red. masses --      5.7997                 3.7452                 1.5647
 Frc consts  --      0.0962                 0.0912                 0.0731
 IR Inten    --      5.4059                15.6786                32.7643

                      7                      8                      9
                      A                      A                      A
 Frequencies --    290.1772               340.1238               347.9006
 Red. masses --      7.6234                 2.4762                 4.3866
 Frc consts  --      0.3782                 0.1688                 0.3128
 IR Inten    --      3.1796                 1.2334                 7.8352

                     10                     11                     12
                      A                      A                      A
 Frequencies --    409.7336               413.6849               460.1066
 Red. masses --      2.7198                 2.9366                 4.0739
 Frc consts  --      0.2690                 0.2961                 0.5081
 IR Inten    --     13.5876                 4.1115                22.0328

                     13                     14                     15
                      A                      A                      A
 Frequencies --    464.9300               526.8318               548.7710
 Red. masses --      4.8661                 4.1179                 6.4227
 Frc consts  --      0.6197                 0.6734                 1.1396
 IR Inten    --      4.8235               131.3032               106.4363

                     16                     17                     18
                      A                      A                      A
 Frequencies --    641.0460               655.7223               722.7607
 Red. masses --      6.8858                 5.2013                 3.2251
 Frc consts  --      1.6672                 1.3177                 0.9926
 IR Inten    --      0.5054                17.8369                11.6866

                     19                     20                     21
                      A                      A                      A
 Frequencies --    754.0652               829.0358               837.3301
 Red. masses --      2.7124                 4.4001                 1.3985
 Frc consts  --      0.9087                 1.7818                 0.5777
 IR Inten    --    767.3606                73.2027                90.5370

                     22                     23                     24
                      A                      A                      A
 Frequencies --    863.1423               897.5226               992.7692
 Red. masses --      1.2500                 2.1567                 1.3082
 Frc consts  --      0.5487                 1.0236                 0.7597
 IR Inten    --      0.0909                24.2466                 0.4266

                     25                     26                     27
                      A                      A                      A
 Frequencies --   1012.1931              1022.5098              1031.8000
 Red. masses --      1.3713                 1.5303                 2.8518
 Frc consts  --      0.8278                 0.9427                 1.7888
 IR Inten    --      0.0576                 3.1269                17.5539

                     28                     29                     30
                      A                      A                      A
 Frequencies --   1071.9793              1109.7425              1126.8081
 Red. masses --      1.5834                 4.4296                 1.2526
 Frc consts  --      1.0720                 3.2141                 0.9370
 IR Inten    --     15.6221               119.6011                 6.7271

                     31                     32                     33
                      A                      A                      A
 Frequencies --   1141.2007              1153.9376              1204.7967
 Red. masses --      1.2627                 4.5418                 1.1941
 Frc consts  --      0.9689                 3.5632                 1.0212
 IR Inten    --     20.5661               425.2355                 9.4893

                     34                     35                     36
                      A                      A                      A
 Frequencies --   1252.3210              1299.3815              1331.4508
 Red. masses --      2.8674                10.6638                 1.2727
 Frc consts  --      2.6495                10.6080                 1.3294
 IR Inten    --      3.7481               562.8688                 2.9878

                     37                     38                     39
                      A                      A                      A
 Frequencies --   1345.6384              1424.8688              1445.4634
 Red. masses --      7.9021                 1.2781                 2.5101
 Frc consts  --      8.4304                 1.5289                 3.0900
 IR Inten    --      2.0120                 2.1509                12.0462

                     40                     41                     42
                      A                      A                      A
 Frequencies --   1488.4710              1496.1528              1544.2250
 Red. masses --      1.0481                 1.1563                 2.5403
 Frc consts  --      1.3681                 1.5250                 3.5691
 IR Inten    --     15.0998                33.0545                14.6070

                     43                     44                     45
                      A                      A                      A
 Frequencies --   1592.7203              1656.1630              1675.6582
 Red. masses --      1.0977                 6.7943                 6.3214
 Frc consts  --      1.6406                10.9800                10.4576
 IR Inten    --    106.4613                 3.3925                60.8761

                     46                     47                     48
                      A                      A                      A
 Frequencies --   3085.6328              3149.4898              3177.5331
 Red. masses --      1.0374                 1.1012                 1.1033
 Frc consts  --      5.8197                 6.4355                 6.5631
 IR Inten    --     18.7252                12.2943                21.0168

                     49                     50                     51
                      A                      A                      A
 Frequencies --   3225.7209              3230.6224              3246.9874
 Red. masses --      1.0906                 1.0904                 1.0943
 Frc consts  --      6.6859                 6.7052                 6.7977
 IR Inten    --      7.5167                 6.3809                 0.7830

                     52                     53                     54
                      A                      A                      A
 Frequencies --   3248.1981              3489.5639              3587.9568
 Red. masses --      1.0952                 1.0492                 1.0981
 Frc consts  --      6.8081                 7.5276                 8.3291
 IR Inten    --      2.8366               129.4400               144.8410

 - Thermochemistry -
 -------------------
 Temperature   298.150 Kelvin.  Pressure   1.00000 Atm.
 Atom     1 has atomic number  6 and mass  12.00000

 Molecular mass:   171.03540 amu.
 Principal axes and moments of inertia in atomic units:
                           1         2         3
     Eigenvalues --   706.922283227.421313543.64935
           X            0.99996   0.00013   0.00848
           Y           -0.00013   1.00000  -0.00064
           Z           -0.00848   0.00064   0.99996
 This molecule is an asymmetric top.
 Rotational symmetry number  1.
 Warning -- assumption of classical behavior for rotation
           may cause significant error
 Rotational temperatures (Kelvin)      0.12252     0.02684     0.02444
 Rotational constants (GHZ):           2.55296     0.55919     0.50929
 Zero-point vibrational energy     410796.4 (Joules/Mol)
                                   98.18270 (Kcal/Mol)
 Warning -- explicit consideration of  15 degrees of freedom as
           vibrations may cause significant error
 Vibrational temperatures:     37.38    67.34   128.66   241.43   292.56
          (Kelvin)            405.15   417.50   489.36   500.55   589.52
                              595.20   661.99   668.93   757.99   789.56
                              922.32   943.44  1039.89  1084.93  1192.80
                             1204.73  1241.87  1291.33  1428.37  1456.32
                             1471.16  1484.53  1542.34  1596.67  1621.23
                             1641.93  1660.26  1733.43  1801.81  1869.52
                             1915.66  1936.07  2050.07  2079.70  2141.58
                             2152.63  2221.80  2291.57  2382.85  2410.90
                             4439.54  4531.41  4571.76  4641.09  4648.15
                             4671.69  4673.43  5020.70  5162.27

 Zero-point correction=                           0.156464 (Hartree/Particle)
 Thermal correction to Energy=                    0.167132
 Thermal correction to Enthalpy=                  0.168076
 Thermal correction to Gibbs Free Energy=         0.118764
 Sum of electronic and zero-point Energies=           -875.133972
 Sum of electronic and thermal Energies=              -875.123304
 Sum of electronic and thermal Enthalpies=            -875.122360
 Sum of electronic and thermal Free Energies=         -875.171672

                     E (Thermal)             CV                S
                      KCal/Mol        Cal/Mol-Kelvin    Cal/Mol-Kelvin
 Total                  104.877             39.783            103.786
 Electronic               0.000              0.000              0.000
 Translational            0.889              2.981             41.318
 Rotational               0.889              2.981             30.470
 Vibrational            103.099             33.821             31.998
 Vibration     1          0.593              1.985              6.115
 Vibration     2          0.595              1.979              4.948
 Vibration     3          0.602              1.957              3.673
 Vibration     4          0.625              1.882              2.460
 Vibration     5          0.639              1.835              2.103
 Vibration     6          0.681              1.708              1.524
 Vibration     7          0.686              1.692              1.473
 Vibration     8          0.720              1.595              1.212
 Vibration     9          0.726              1.580              1.176
 Vibration    10          0.774              1.449              0.928
 Vibration    11          0.777              1.441              0.914
 Vibration    12          0.818              1.339              0.766
 Vibration    13          0.822              1.328              0.752
 Vibration    14          0.882              1.191              0.594
 Vibration    15          0.904              1.142              0.547

                           ! Non-Optimized Parameters !
 Normal termination of Gaussian 16 at Thu May 19 14:57:32 2022.
