 Gaussian 16, Revision C.01,
 Gaussian 16:  ES64L-G16RevC.01  3-Jul-2019

 -----------------------------------------------------
 #m062X/gen 6D OPT Freq=noraman SCRF=(SMD,Solvent=h2o)
 -----------------------------------------------------

 -----
 a3 b1
 -----
 Symbolic Z-matrix:
 Charge =  0 Multiplicity = 1

 SCF Done:  E(RM062X) =  -935.201786652     A.U. after   14 cycles
 SCF Done:  E(RM062X) =  -935.202440471     A.U. after   13 cycles
 SCF Done:  E(RM062X) =  -935.202749001     A.U. after   13 cycles
 SCF Done:  E(RM062X) =  -935.203207861     A.U. after   15 cycles
 SCF Done:  E(RM062X) =  -935.203473350     A.U. after   12 cycles
 SCF Done:  E(RM062X) =  -935.203916175     A.U. after   15 cycles
 SCF Done:  E(RM062X) =  -935.204064826     A.U. after   12 cycles
 SCF Done:  E(RM062X) =  -935.204310921     A.U. after   15 cycles
 SCF Done:  E(RM062X) =  -935.204354599     A.U. after   14 cycles
 SCF Done:  E(RM062X) =  -935.204372565     A.U. after   11 cycles
 SCF Done:  E(RM062X) =  -935.204367437     A.U. after   13 cycles
 SCF Done:  E(RM062X) =  -935.204382621     A.U. after   11 cycles
 SCF Done:  E(RM062X) =  -935.204384336     A.U. after   12 cycles
 SCF Done:  E(RM062X) =  -935.204384253     A.U. after   12 cycles
 SCF Done:  E(RM062X) =  -935.204387170     A.U. after   12 cycles
 SCF Done:  E(RM062X) =  -935.204387375     A.U. after    9 cycles
 Optimization completed.
    -- Stationary point found.
 Normal termination of Gaussian 16 at Thu May 19 15:06:13 2022.

 ------------------------------------------------------------------
 #N Geom=AllCheck Guess=TCheck SCRF=Check GenChk RM062X/ChkBas Freq
 ------------------------------------------------------------------

 Structure from the checkpoint file:  "/jobfs/40645270.gadi-pbs/Gau-2891053.chk"
 -----
 a3 b1
 -----
 Charge =  0 Multiplicity = 1

                         Standard orientation:
 ---------------------------------------------------------------------
 Center     Atomic      Atomic             Coordinates (Angstroms)
 Number     Number       Type             X           Y           Z
 ---------------------------------------------------------------------
      1          6           0       -0.077364   -0.000021    0.099288
      2          6           0        0.596131   -1.220623    0.066063
      3          1           0        0.050107   -2.158308    0.094470
      4          6           0        1.985635   -1.222375    0.005066
      5          1           0        2.553408   -2.146342   -0.015523
      6          6           0        2.641127    0.000023   -0.024482
      7          6           0        1.985614    1.222391    0.005085
      8          1           0        2.553299    2.146410   -0.015510
      9          6           0        0.596092    1.220582    0.066117
     10          1           0        0.050083    2.158280    0.094550
     11         16           0       -1.852886   -0.000033    0.120469
     12          8           0       -2.298690   -1.264576    0.705296
     13          8           0       -2.298713    1.264200    0.705953
     14          7           0       -2.402868    0.000360   -1.437557
     15          1           0       -2.107545   -0.838989   -1.940977
     16          1           0       -2.107555    0.839959   -1.940572
     17          9           0        3.987807    0.000016   -0.081540
 ---------------------------------------------------------------------

 SCF Done:  E(RM062X) =  -935.204387375     A.U. after    2 cycles

 The electronic state is 1-A.
 Alpha  occ. eigenvalues --  -90.18270 -25.29326 -19.66244 -19.66243 -14.80274
 Alpha  occ. eigenvalues --  -10.65987 -10.60227 -10.58786 -10.58784 -10.57612
 Alpha  occ. eigenvalues --  -10.57611  -8.49262  -6.41461  -6.41451  -6.41323
 Alpha  occ. eigenvalues --   -1.38735  -1.26190  -1.14751  -1.03184  -0.99556
 Alpha  occ. eigenvalues --   -0.88706  -0.87676  -0.77415  -0.73273  -0.70418
 Alpha  occ. eigenvalues --   -0.64765  -0.63763  -0.61710  -0.59485  -0.59339
 Alpha  occ. eigenvalues --   -0.58019  -0.54392  -0.53753  -0.51829  -0.49905
 Alpha  occ. eigenvalues --   -0.49824  -0.46579  -0.43921  -0.42881  -0.42215
 Alpha  occ. eigenvalues --   -0.40587  -0.40179  -0.38577  -0.33456  -0.32298
 Alpha virt. eigenvalues --   -0.01282  -0.00313   0.01278   0.03083   0.03849
 Alpha virt. eigenvalues --    0.03919   0.04762   0.05447   0.06084   0.07766
 Alpha virt. eigenvalues --    0.08223   0.08244   0.09087   0.09494   0.10917

 Mulliken charges:
               1
     1  C   -0.508453
     2  C   -0.229580
     3  H    0.290276
     4  C   -0.042491
     5  H    0.286259
     6  C    0.142270
     7  C   -0.042452
     8  H    0.286261
     9  C   -0.229110
    10  H    0.290272
    11  S    1.418376
    12  O   -0.657053
    13  O   -0.656994
    14  N   -1.011630
    15  H    0.501651
    16  H    0.501651
    17  F   -0.339253
 Sum of Mulliken charges =  -0.00000

 Dipole moment (field-independent basis, Debye):
    X=              4.8705    Y=              0.0015    Z=             -5.6317  Tot=              7.4456
 Quadrupole moment (field-independent basis, Debye-Ang):
   XX=            -91.9422   YY=            -64.5741   ZZ=            -67.6111
   XY=             -0.0028   XZ=             11.2150   YZ=             -0.0026

  Exact polarizability:     170.052      -0.001     152.323       0.108       0.002      92.238
 Approx polarizability:     144.851      -0.000     140.459      -1.305       0.002      84.258

                      1                      2                      3
                      A                      A                      A
 Frequencies --     16.6085                89.9232               170.4215
 Red. masses --      4.5403                 7.5556                 8.2880
 Frc consts  --      0.0007                 0.0360                 0.1418
 IR Inten    --      5.5843                14.1451                12.1908

                      4                      5                      6
                      A                      A                      A
 Frequencies --    213.9080               283.1100               287.0150
 Red. masses --      5.4346                 1.5007                11.9512
 Frc consts  --      0.1465                 0.0709                 0.5801
 IR Inten    --     11.6606                25.4773                 1.0609

                      7                      8                      9
                      A                      A                      A
 Frequencies --    367.2361               373.8417               419.8266
 Red. masses --      6.2582                 3.9582                 2.9549
 Frc consts  --      0.4973                 0.3259                 0.3069
 IR Inten    --      5.1374                16.3382                 0.5557

                     10                     11                     12
                      A                      A                      A
 Frequencies --    427.8673               465.9324               481.0178
 Red. masses --      3.4207                 4.4365                 6.4884
 Frc consts  --      0.3690                 0.5675                 0.8845
 IR Inten    --      5.7360                27.9120                22.8962

                     13                     14                     15
                      A                      A                      A
 Frequencies --    532.2465               550.2648               635.6866
 Red. masses --      4.0452                 5.5589                 7.2128
 Frc consts  --      0.6752                 0.9917                 1.7173
 IR Inten    --    130.3537               141.0054                 0.0009

                     16                     17                     18
                      A                      A                      A
 Frequencies --    658.3356               723.1051               751.9206
 Red. masses --      5.9772                 3.8516                 2.5916
 Frc consts  --      1.5263                 1.1866                 0.8633
 IR Inten    --      9.3213                 5.7006               707.5038

                     19                     20                     21
                      A                      A                      A
 Frequencies --    843.0622               850.1243               861.8070
 Red. masses --      1.2416                 5.7534                 1.6292
 Frc consts  --      0.5199                 2.4499                 0.7129
 IR Inten    --      0.0408               127.4723               141.2817

                     22                     23                     24
                      A                      A                      A
 Frequencies --    899.3812               986.1243              1003.7001
 Red. masses --      2.3003                 1.3373                 1.3567
 Frc consts  --      1.0963                 0.7662                 0.8053
 IR Inten    --     10.6938                 0.7078                 0.0005

                     25                     26                     27
                      A                      A                      A
 Frequencies --   1030.7500              1107.7511              1123.4024
 Red. masses --      2.9384                 4.4884                 1.2239
 Frc consts  --      1.8394                 3.2451                 0.9100
 IR Inten    --     20.7458               116.0662                 6.6131

                     28                     29                     30
                      A                      A                      A
 Frequencies --   1127.3570              1154.6416              1179.7177
 Red. masses --      1.2507                 4.0285                 1.2803
 Frc consts  --      0.9365                 3.1644                 1.0499
 IR Inten    --     20.0522               428.8410                15.2301

                     31                     32                     33
                      A                      A                      A
 Frequencies --   1274.7994              1303.4157              1315.7566
 Red. masses --      4.1454                 8.9275                 1.2877
 Frc consts  --      3.9691                 8.9361                 1.3135
 IR Inten    --    222.9790               560.8116                 2.4248

                     34                     35                     36
                      A                      A                      A
 Frequencies --   1351.3870              1454.4372              1542.7793
 Red. masses --     10.6202                 3.6415                 2.6657
 Frc consts  --     11.4273                 4.5386                 3.7382
 IR Inten    --      0.7634                17.4375               131.8522

                     37                     38                     39
                      A                      A                      A
 Frequencies --   1591.3292              1670.4767              1680.4101
 Red. masses --      1.0985                 6.5718                 7.8835
 Frc consts  --      1.6390                10.8047                13.1159
 IR Inten    --    108.0793               144.1427                30.8948

                     40                     41                     42
                      A                      A                      A
 Frequencies --   3250.4507              3251.4913              3264.1354
 Red. masses --      1.0911                 1.0909                 1.0962
 Frc consts  --      6.7920                 6.7950                 6.8815
 IR Inten    --      2.0186                 0.9758                 6.1913

                     43                     44                     45
                      A                      A                      A
 Frequencies --   3264.3666              3489.5092              3588.3784
 Red. masses --      1.0969                 1.0491                 1.0984
 Frc consts  --      6.8865                 7.5265                 8.3331
 IR Inten    --      2.1485               134.2030               150.1503

 - Thermochemistry -
 -------------------
 Temperature   298.150 Kelvin.  Pressure   1.00000 Atm.
 Atom     1 has atomic number  6 and mass  12.00000

 Molecular mass:   175.01033 amu.
 Principal axes and moments of inertia in atomic units:
                           1         2         3
     Eigenvalues --   699.904413299.583603619.97053
           X            0.99995  -0.00000   0.01028
           Y            0.00000   1.00000  -0.00002
           Z           -0.01028   0.00002   0.99995
 This molecule is an asymmetric top.
 Rotational symmetry number  1.
 Warning -- assumption of classical behavior for rotation
           may cause significant error
 Rotational temperatures (Kelvin)      0.12375     0.02625     0.02393
 Rotational constants (GHZ):           2.57855     0.54696     0.49855
 Zero-point vibrational energy     316467.3 (Joules/Mol)
                                   75.63751 (Kcal/Mol)
 Warning -- explicit consideration of  14 degrees of freedom as
           vibrations may cause significant error
 Vibrational temperatures:     23.90   129.38   245.20   307.77   407.33
          (Kelvin)            412.95   528.37   537.87   604.04   615.61
                              670.37   692.08   765.78   791.71   914.61
                              947.20  1040.39  1081.85  1212.98  1223.14
                             1239.95  1294.01  1418.81  1444.10  1483.02
                             1593.81  1616.33  1622.02  1661.27  1697.35
                             1834.15  1875.32  1893.08  1944.34  2092.61
                             2219.72  2289.57  2403.44  2417.74  4676.67
                             4678.17  4696.36  4696.70  5020.63  5162.88

 Zero-point correction=                           0.120536 (Hartree/Particle)
 Thermal correction to Energy=                    0.130182
 Thermal correction to Enthalpy=                  0.131126
 Thermal correction to Gibbs Free Energy=         0.084033
 Sum of electronic and zero-point Energies=           -935.083851
 Sum of electronic and thermal Energies=              -935.074206
 Sum of electronic and thermal Enthalpies=            -935.073261
 Sum of electronic and thermal Free Energies=         -935.120355

                     E (Thermal)             CV                S
                      KCal/Mol        Cal/Mol-Kelvin    Cal/Mol-Kelvin
 Total                   81.690             36.656             99.116
 Electronic               0.000              0.000              0.000
 Translational            0.889              2.981             41.386
 Rotational               0.889              2.981             30.503
 Vibrational             79.913             30.694             27.227
 Vibration     1          0.593              1.986              7.003
 Vibration     2          0.602              1.956              3.662
 Vibration     3          0.626              1.879              2.431
 Vibration     4          0.644              1.820              2.010
 Vibration     5          0.682              1.705              1.515
 Vibration     6          0.684              1.698              1.491
 Vibration     7          0.740              1.540              1.091
 Vibration     8          0.745              1.526              1.064
 Vibration     9          0.783              1.427              0.893
 Vibration    10          0.789              1.410              0.866
 Vibration    11          0.823              1.326              0.749
 Vibration    12          0.837              1.292              0.707
 Vibration    13          0.887              1.179              0.582
 Vibration    14          0.906              1.139              0.544

 Optimization completed.
    -- Stationary point found.
 Normal termination of Gaussian 16 at Thu May 19 15:09:32 2022.
