 Gaussian 16, Revision C.01,
 Gaussian 16:  ES64L-G16RevC.01  3-Jul-2019

 -----------------------------------------------------
 #m062X/gen 6D OPT Freq=noraman SCRF=(SMD,Solvent=h2o)
 -----------------------------------------------------

 -----
 a1 b1
 -----
 Symbolic Z-matrix:
 Charge =  0 Multiplicity = 1

 SCF Done:  E(RM062X) =  -1034.40207963     A.U. after   15 cycles
 Optimization completed.
    -- Stationary point found.
 Normal termination of Gaussian 16 at Thu May 19 15:05:18 2022.

 ------------------------------------------------------------------
 #N Geom=AllCheck Guess=TCheck SCRF=Check GenChk RM062X/ChkBas Freq
 ------------------------------------------------------------------

 Structure from the checkpoint file:  "/jobfs/40645538.gadi-pbs/Gau-134907.chk"
 -----
 a1 b1
 -----
 Charge =  0 Multiplicity = 1

                         Standard orientation:
 ---------------------------------------------------------------------
 Center     Atomic      Atomic             Coordinates (Angstroms)
 Number     Number       Type             X           Y           Z
 ---------------------------------------------------------------------
      1          6           0       -0.239392    0.058657   -0.030393
      2          6           0       -1.085815    1.168103    0.005685
      3          9           0       -0.571408    2.403788   -0.004771
      4          6           0       -2.465071    1.036430    0.044552
      5          1           0       -3.077794    1.930931    0.069476
      6          6           0       -3.021507   -0.238895    0.047876
      7          6           0       -2.215554   -1.376755    0.011722
      8          1           0       -2.626990   -2.380006    0.014018
      9          6           0       -0.848552   -1.198688   -0.028151
     10          9           0       -0.046613   -2.279452   -0.056346
     11         16           0        1.541768    0.140581   -0.101933
     12          8           0        1.958295   -0.583167   -1.298726
     13          8           0        1.943311    1.528632    0.077393
     14          7           0        2.137009   -0.692593    1.181103
     15          1           0        1.925582   -1.691052    1.137975
     16          1           0       -4.100159   -0.350363    0.078435
     17          1           0        1.856697   -0.286504    2.076267
 ---------------------------------------------------------------------

 SCF Done:  E(RM062X) =  -1034.40207963     A.U. after    1 cycles

 The electronic state is 1-A.
 Alpha  occ. eigenvalues --  -90.19551 -25.30892 -25.30208 -19.66777 -19.66698
 Alpha  occ. eigenvalues --  -14.80753 -10.67855 -10.67713 -10.61535 -10.58640
 Alpha  occ. eigenvalues --  -10.57655 -10.57563  -8.50390  -6.42586  -6.42578
 Alpha  occ. eigenvalues --   -6.42503  -1.40456  -1.39974  -1.27005  -1.15426
 Alpha  occ. eigenvalues --   -1.03918  -1.00411  -0.89955  -0.87760  -0.78491
 Alpha  occ. eigenvalues --   -0.74368  -0.72756  -0.67531  -0.64732  -0.64075
 Alpha  occ. eigenvalues --   -0.61893  -0.60320  -0.59693  -0.58805  -0.58563
 Alpha  occ. eigenvalues --   -0.55978  -0.55298  -0.54968  -0.48970  -0.46823
 Alpha  occ. eigenvalues --   -0.46531  -0.45748  -0.44299  -0.42747  -0.41015
 Alpha  occ. eigenvalues --   -0.40689  -0.39230  -0.33702  -0.32322
 Alpha virt. eigenvalues --   -0.02175   0.00896   0.01047   0.03258   0.03350
 Alpha virt. eigenvalues --    0.03702   0.03929   0.05179   0.06178   0.07437
 Alpha virt. eigenvalues --    0.07866   0.08041   0.08307   0.08811   0.09612

 Mulliken charges:
               1
     1  C   -0.521022
     2  C    0.023565
     3  F   -0.316194
     4  C   -0.009430
     5  H    0.286904
     6  C   -0.285809
     7  C    0.019704
     8  H    0.289930
     9  C    0.443988
    10  F   -0.338934
    11  S    1.390697
    12  O   -0.598144
    13  O   -0.648785
    14  N   -1.028649
    15  H    0.502711
    16  H    0.281154
    17  H    0.508313
 Sum of Mulliken charges =   0.00000

 Dipole moment (field-independent basis, Debye):
    X=             -8.2042    Y=             -3.5985    Z=              5.0157  Tot=             10.2672
 Quadrupole moment (field-independent basis, Debye-Ang):
   XX=            -70.0553   YY=            -77.5834   ZZ=            -73.8008
   XY=             -4.1869   XZ=              8.1232   YZ=             -4.3602

  Exact polarizability:     171.066       0.084     149.874      -0.070       1.940      92.393
 Approx polarizability:     142.821      -0.350     143.022      -0.994       3.174      86.193

                      1                      2                      3
                      A                      A                      A
 Frequencies --     42.4743                83.2033               174.7860
 Red. masses --      8.1038                 6.9234                 9.5736
 Frc consts  --      0.0086                 0.0282                 0.1723
 IR Inten    --      8.3198                 4.4574                 3.2554

                      4                      5                      6
                      A                      A                      A
 Frequencies --    193.7083               241.5877               255.2888
 Red. masses --      6.8377                 4.9110                 6.1554
 Frc consts  --      0.1512                 0.1689                 0.2364
 IR Inten    --     20.2160                 0.4760                13.9734

                      7                      8                      9
                      A                      A                      A
 Frequencies --    275.5821               309.5547               366.5558
 Red. masses --      5.0341                 2.1014                 3.3687
 Frc consts  --      0.2253                 0.1186                 0.2667
 IR Inten    --     13.0363                25.1207                 6.1523

                     10                     11                     12
                      A                      A                      A
 Frequencies --    381.1210               441.3577               468.4874
 Red. masses --     11.0801                 2.9479                 7.5250
 Frc consts  --      0.9482                 0.3383                 0.9731
 IR Inten    --      8.8970                37.5236                50.5356

                     13                     14                     15
                      A                      A                      A
 Frequencies --    517.2999               530.2429               543.1631
 Red. masses --      7.5327                 7.1014                 5.3977
 Frc consts  --      1.1876                 1.1764                 0.9383
 IR Inten    --     14.6713                92.7235                67.4554

                     16                     17                     18
                      A                      A                      A
 Frequencies --    563.3134               604.7423               629.4282
 Red. masses --      6.3414                 4.8652                 6.1843
 Frc consts  --      1.1856                 1.0483                 1.4435
 IR Inten    --      7.8991                 5.2383                 9.2156

                     19                     20                     21
                      A                      A                      A
 Frequencies --    709.2701               730.6016               782.6921
 Red. masses --      2.1245                 2.9061                 6.8276
 Frc consts  --      0.6297                 0.9139                 2.4643
 IR Inten    --    690.7155                23.8515               113.4127

                     22                     23                     24
                      A                      A                      A
 Frequencies --    814.7550               900.1347               922.6331
 Red. masses --      1.6483                 2.9418                 1.4028
 Frc consts  --      0.6447                 1.4044                 0.7036
 IR Inten    --    140.5206                46.2549                 0.0252

                     25                     26                     27
                      A                      A                      A
 Frequencies --   1021.0804              1038.8403              1078.6633
 Red. masses --      1.3193                 4.9865                 3.1803
 Frc consts  --      0.8105                 3.1706                 2.1802
 IR Inten    --      1.1242               173.0323                 8.8201

                     28                     29                     30
                      A                      A                      A
 Frequencies --   1123.9590              1126.0935              1161.6590
 Red. masses --      2.1093                 1.4156                 5.2038
 Frc consts  --      1.5700                 1.0576                 4.1374
 IR Inten    --     64.6109                31.6883               406.6916

                     31                     32                     33
                      A                      A                      A
 Frequencies --   1174.9541              1273.6278              1324.4944
 Red. masses --      1.1787                 1.9184                 9.8854
 Frc consts  --      0.9587                 1.8335                10.2175
 IR Inten    --      5.1034                48.0440               403.6619

                     34                     35                     36
                      A                      A                      A
 Frequencies --   1329.5067              1349.1065              1500.1096
 Red. masses --      6.5036                 6.5725                 4.0133
 Frc consts  --      6.7731                 7.0482                 5.3210
 IR Inten    --    182.9401                28.2436                20.1768

                     37                     38                     39
                      A                      A                      A
 Frequencies --   1524.0569              1589.0332              1664.9631
 Red. masses --      3.3558                 1.1020                 7.7324
 Frc consts  --      4.5925                 1.6395                12.6292
 IR Inten    --    346.0330               107.7061               203.4887

                     40                     41                     42
                      A                      A                      A
 Frequencies --   1694.8529              3254.5924              3265.0582
 Red. masses --      8.3430                 1.0899                 1.0940
 Frc consts  --     14.1201                 6.8017                 6.8716
 IR Inten    --    228.2790                 3.2792                 1.7643

                     43                     44                     45
                      A                      A                      A
 Frequencies --   3269.5429              3490.6699              3592.8747
 Red. masses --      1.0986                 1.0482                 1.0999
 Frc consts  --      6.9195                 7.5247                 8.3656
 IR Inten    --      3.5899               153.6775               177.4398

 - Thermochemistry -
 -------------------
 Temperature   298.150 Kelvin.  Pressure   1.00000 Atm.
 Atom     1 has atomic number  6 and mass  12.00000

 Molecular mass:   193.00091 amu.
 Principal axes and moments of inertia in atomic units:
                           1         2         3
     Eigenvalues --  1406.161002235.325493265.81603
           X            0.99994  -0.00265   0.01020
           Y            0.00274   0.99996  -0.00899
           Z           -0.01018   0.00902   0.99991
 This molecule is an asymmetric top.
 Rotational symmetry number  1.
 Warning -- assumption of classical behavior for rotation
           may cause significant error
 Rotational temperatures (Kelvin)      0.06160     0.03875     0.02652
 Rotational constants (GHZ):           1.28345     0.80737     0.55262
 Zero-point vibrational energy     295057.3 (Joules/Mol)
                                   70.52038 (Kcal/Mol)
 Warning -- explicit consideration of  17 degrees of freedom as
           vibrations may cause significant error
 Vibrational temperatures:     61.11   119.71   251.48   278.70   347.59
          (Kelvin)            367.30   396.50   445.38   527.39   548.35
                              635.02   674.05   744.28   762.90   781.49
                              810.48   870.09   905.61  1020.48  1051.17
                             1126.12  1172.25  1295.09  1327.46  1469.11
                             1494.66  1551.96  1617.13  1620.20  1671.37
                             1690.50  1832.47  1905.65  1912.86  1941.06
                             2158.32  2192.78  2286.26  2395.51  2438.52
                             4682.63  4697.69  4704.14  5022.30  5169.35

 Zero-point correction=                           0.112381 (Hartree/Particle)
 Thermal correction to Energy=                    0.122830
 Thermal correction to Enthalpy=                  0.123775
 Thermal correction to Gibbs Free Energy=         0.075798
 Sum of electronic and zero-point Energies=          -1034.289698
 Sum of electronic and thermal Energies=             -1034.279249
 Sum of electronic and thermal Enthalpies=           -1034.278305
 Sum of electronic and thermal Free Energies=        -1034.326282

                     E (Thermal)             CV                S
                      KCal/Mol        Cal/Mol-Kelvin    Cal/Mol-Kelvin
 Total                   77.077             39.589            100.976
 Electronic               0.000              0.000              0.000
 Translational            0.889              2.981             41.678
 Rotational               0.889              2.981             30.707
 Vibrational             75.300             33.627             28.590
 Vibration     1          0.595              1.980              5.140
 Vibration     2          0.600              1.961              3.814
 Vibration     3          0.627              1.873              2.383
 Vibration     4          0.635              1.849              2.192
 Vibration     5          0.658              1.777              1.791
 Vibration     6          0.666              1.754              1.694
 Vibration     7          0.677              1.719              1.561
 Vibration     8          0.699              1.656              1.365
 Vibration     9          0.739              1.541              1.094
 Vibration    10          0.751              1.510              1.035
 Vibration    11          0.801              1.380              0.822
 Vibration    12          0.826              1.320              0.742
 Vibration    13          0.872              1.212              0.616
 Vibration    14          0.885              1.183              0.587
 Vibration    15          0.898              1.155              0.559
 Vibration    16          0.919              1.111              0.517
 Vibration    17          0.963              1.022              0.442

 Optimization completed.
    -- Stationary point found.
 Normal termination of Gaussian 16 at Thu May 19 15:08:33 2022.
