 Gaussian 16, Revision C.01,
 Gaussian 16:  ES64L-G16RevC.01  3-Jul-2019

 -----------------------------------------------------
 #m062X/gen 6D OPT Freq=noraman SCRF=(SMD,Solvent=h2o)
 -----------------------------------------------------

 -----
 a3 b1
 -----
 Symbolic Z-matrix:
 Charge =  0 Multiplicity = 1

 SCF Done:  E(RM062X) =  -1331.99563552     A.U. after   15 cycles
 SCF Done:  E(RM062X) =  -1331.99580284     A.U. after   12 cycles
 SCF Done:  E(RM062X) =  -1331.99584955     A.U. after   12 cycles
 SCF Done:  E(RM062X) =  -1331.99586465     A.U. after   11 cycles
 SCF Done:  E(RM062X) =  -1331.99586905     A.U. after   10 cycles
 SCF Done:  E(RM062X) =  -1331.99587088     A.U. after   10 cycles
 SCF Done:  E(RM062X) =  -1331.99586967     A.U. after   11 cycles
 SCF Done:  E(RM062X) =  -1331.99586854     A.U. after   10 cycles
 SCF Done:  E(RM062X) =  -1331.99587067     A.U. after   11 cycles
 SCF Done:  E(RM062X) =  -1331.99586817     A.U. after   11 cycles
 SCF Done:  E(RM062X) =  -1331.99587064     A.U. after   11 cycles
 SCF Done:  E(RM062X) =  -1331.99586780     A.U. after   11 cycles
 SCF Done:  E(RM062X) =  -1331.99587065     A.U. after   11 cycles
 SCF Done:  E(RM062X) =  -1331.99586789     A.U. after   11 cycles
 SCF Done:  E(RM062X) =  -1331.99587064     A.U. after   11 cycles
 SCF Done:  E(RM062X) =  -1331.99586785     A.U. after   11 cycles
 Optimization completed on the basis of negligible forces.
    -- Stationary point found.
 Normal termination of Gaussian 16 at Thu May 19 15:23:23 2022.

 ------------------------------------------------------------------
 #N Geom=AllCheck Guess=TCheck SCRF=Check GenChk RM062X/ChkBas Freq
 ------------------------------------------------------------------

 Structure from the checkpoint file:  "/jobfs/40645849.gadi-pbs/Gau-29104.chk"
 -----
 a3 b1
 -----
 Charge =  0 Multiplicity = 1

                         Standard orientation:
 ---------------------------------------------------------------------
 Center     Atomic      Atomic             Coordinates (Angstroms)
 Number     Number       Type             X           Y           Z
 ---------------------------------------------------------------------
      1          6           0       -0.446023    0.094157   -0.041961
      2          6           0        0.341501    1.242583   -0.016643
      3          9           0       -0.179962    2.464172   -0.024790
      4          6           0        1.726958    1.148708    0.011968
      5          9           0        2.466550    2.254383    0.034747
      6          6           0        2.341703   -0.092847    0.016769
      7          6           0        1.573780   -1.249373   -0.007554
      8          9           0        2.161688   -2.441991   -0.000780
      9          6           0        0.196224   -1.143239   -0.038598
     10          9           0       -0.524925   -2.265568   -0.053570
     11         16           0       -2.238745    0.109850   -0.096576
     12          8           0       -2.666214    1.491760    0.043503
     13          8           0       -2.623069   -0.665313   -1.267742
     14          7           0       -2.782587   -0.701403    1.213520
     15          1           0       -2.521498   -0.259852    2.097536
     16          9           0        3.664090   -0.177838    0.045012
     17          1           0       -2.558047   -1.697852    1.197480
 ---------------------------------------------------------------------

 SCF Done:  E(RM062X) =  -1331.99586785     A.U. after    1 cycles

 The electronic state is 1-A.
 Alpha  occ. eigenvalues --  -90.20403 -25.32778 -25.32754 -25.32304 -25.32189
 Alpha  occ. eigenvalues --  -25.32121 -19.67455 -19.67365 -14.81324 -10.70015
 Alpha  occ. eigenvalues --  -10.69857 -10.69707 -10.68838 -10.68724 -10.63371
 Alpha  occ. eigenvalues --   -8.51201  -6.43392  -6.43386  -6.43337  -1.43470
 Alpha  occ. eigenvalues --   -1.42874  -1.42369  -1.41353  -1.40903  -1.27823
 Alpha  occ. eigenvalues --   -1.16244  -1.04697  -1.03525  -0.92459  -0.90677
 Alpha  occ. eigenvalues --   -0.81480  -0.78401  -0.75431  -0.71160  -0.71022
 Alpha  occ. eigenvalues --   -0.69409  -0.65566  -0.65424  -0.64602  -0.64157
 Alpha  occ. eigenvalues --   -0.63695  -0.62463  -0.61675  -0.60872  -0.60158
 Alpha  occ. eigenvalues --   -0.58903  -0.58378  -0.56603  -0.56128  -0.55633
 Alpha  occ. eigenvalues --   -0.52539  -0.52315  -0.48780  -0.46224  -0.45177
 Alpha  occ. eigenvalues --   -0.43349  -0.41649  -0.41419  -0.40147  -0.34410
 Alpha  occ. eigenvalues --   -0.33165
 Alpha virt. eigenvalues --   -0.03012  -0.01593   0.00167   0.01772   0.02155
 Alpha virt. eigenvalues --    0.03658   0.03871   0.04867   0.05767   0.06228
 Alpha virt. eigenvalues --    0.07303   0.07381   0.07694   0.08377   0.08740

 Mulliken charges:
               1
     1  C   -0.346608
     2  C   -0.310450
     3  F   -0.305530
     4  C    0.542618
     5  F   -0.322840
     6  C    0.477706
     7  C    0.523949
     8  F   -0.322234
     9  C    0.501730
    10  F   -0.326046
    11  S    1.409131
    12  O   -0.632981
    13  O   -0.569671
    14  N   -1.022387
    15  H    0.513948
    16  F   -0.317676
    17  H    0.507340
 Sum of Mulliken charges =  -0.00000

 Dipole moment (field-independent basis, Debye):
    X=              3.3236    Y=             -2.9034    Z=              4.9985  Tot=              6.6679
 Quadrupole moment (field-independent basis, Debye-Ang):
   XX=           -107.8970   YY=            -97.7618   ZZ=            -82.9405
   XY=              7.0039   XZ=            -12.1057   YZ=             -4.4933

  Exact polarizability:     168.249       0.886     148.396      -0.740       1.612      89.983
 Approx polarizability:     147.040       0.553     148.228       0.408       2.928      85.957

                      1                      2                      3
                      A                      A                      A
 Frequencies --     28.6852                68.5113               132.9781
 Red. masses --      7.6369                11.1491                18.2159
 Frc consts  --      0.0037                 0.0308                 0.1898
 IR Inten    --     11.4062                 5.0858                 0.2084

                      4                      5                      6
                      A                      A                      A
 Frequencies --    148.0153               159.6986               194.8467
 Red. masses --     11.8238                14.0384                12.3011
 Frc consts  --      0.1526                 0.2109                 0.2752
 IR Inten    --      4.8802                 6.5279                12.9142

                      7                      8                      9
                      A                      A                      A
 Frequencies --    244.6313               255.4740               264.1437
 Red. masses --      8.3594                 6.5792                16.8110
 Frc consts  --      0.2947                 0.2530                 0.6911
 IR Inten    --     10.2318                 8.3525                 3.2672

                     10                     11                     12
                      A                      A                      A
 Frequencies --    270.5688               274.5121               317.5176
 Red. masses --      7.2560                18.3172                 4.8732
 Frc consts  --      0.3130                 0.8133                 0.2895
 IR Inten    --     13.7565                 0.1541                 2.5250

                     13                     14                     15
                      A                      A                      A
 Frequencies --    344.3814               353.6833               382.1602
 Red. masses --      2.6241                11.6596                11.4174
 Frc consts  --      0.1834                 0.8593                 0.9824
 IR Inten    --     13.0355                 4.7431                 0.1593

                     16                     17                     18
                      A                      A                      A
 Frequencies --    411.7213               448.2904               456.5760
 Red. masses --      6.5534                14.2531                 2.5322
 Frc consts  --      0.6545                 1.6876                 0.3110
 IR Inten    --      5.6133                 1.4141                40.7476

                     19                     20                     21
                      A                      A                      A
 Frequencies --    490.8875               497.7085               581.9307
 Red. masses --     13.3764                13.9722                 9.9176
 Frc consts  --      1.8991                 2.0392                 1.9788
 IR Inten    --     51.5139                42.5824               112.7869

                     22                     23                     24
                      A                      A                      A
 Frequencies --    595.0790               649.7460               671.1388
 Red. masses --     13.3795                10.8773                10.1234
 Frc consts  --      2.7915                 2.7056                 2.6866
 IR Inten    --     19.6756                27.9733                29.1487

                     25                     26                     27
                      A                      A                      A
 Frequencies --    682.4826               692.4291               775.9665
 Red. masses --      2.5521                 4.4973                12.1142
 Frc consts  --      0.7004                 1.2704                 4.2976
 IR Inten    --    563.8476               219.5434                 1.6639

                     28                     29                     30
                      A                      A                      A
 Frequencies --    869.7445               917.8713              1024.9801
 Red. masses --      9.1347                 3.6324                13.7122
 Frc consts  --      4.0713                 1.8030                 8.4877
 IR Inten    --      0.5583                62.7439               360.2602

                     31                     32                     33
                      A                      A                      A
 Frequencies --   1127.4397              1138.8850              1161.5477
 Red. masses --      1.2585                13.4737                14.9803
 Frc consts  --      0.9425                10.2966                11.9082
 IR Inten    --     13.1869               154.9372               644.3004

                     34                     35                     36
                      A                      A                      A
 Frequencies --   1203.3409              1320.0138              1339.6169
 Red. masses --     13.7136                12.0439                12.5886
 Frc consts  --     11.6998                12.3645                13.3103
 IR Inten    --     10.4442                27.1582               455.5393

                     37                     38                     39
                      A                      A                      A
 Frequencies --   1348.1570              1465.2565              1568.8322
 Red. masses --     12.8504                12.5525                10.0816
 Frc consts  --     13.7609                15.8785                14.6195
 IR Inten    --     75.5622                19.8028               921.3519

                     40                     41                     42
                      A                      A                      A
 Frequencies --   1585.4784              1592.9428              1713.3802
 Red. masses --      1.1347                11.2433                12.0175
 Frc consts  --      1.6805                16.8091                20.7860
 IR Inten    --     81.8425               328.8458                24.8632

                     43                     44                     45
                      A                      A                      A
 Frequencies --   1726.1236              3494.1912              3599.2492
 Red. masses --     12.0471                 1.0479                 1.1006
 Frc consts  --     21.1483                 7.5384                 8.4008
 IR Inten    --     91.3020               170.0026               190.0435

 - Thermochemistry -
 -------------------
 Temperature   298.150 Kelvin.  Pressure   1.00000 Atm.
 Atom     1 has atomic number  6 and mass  12.00000

 Molecular mass:   246.97264 amu.
 Principal axes and moments of inertia in atomic units:
                           1         2         3
     Eigenvalues --  2134.712654136.366685895.53747
           X            0.99993   0.00821  -0.00829
           Y           -0.00826   0.99995  -0.00557
           Z            0.00824   0.00564   0.99995
 This molecule is an asymmetric top.
 Rotational symmetry number  1.
 Warning -- assumption of classical behavior for rotation
           may cause significant error
 Rotational temperatures (Kelvin)      0.04057     0.02094     0.01469
 Rotational constants (GHZ):           0.84543     0.43631     0.30612
 Zero-point vibrational energy     230824.3 (Joules/Mol)
                                   55.16834 (Kcal/Mol)
 Warning -- explicit consideration of  22 degrees of freedom as
           vibrations may cause significant error
 Vibrational temperatures:     41.27    98.57   191.33   212.96   229.77
          (Kelvin)            280.34   351.97   367.57   380.04   389.29
                              394.96   456.84   495.49   508.87   549.84
                              592.38   644.99   656.91   706.28   716.09
                              837.27   856.19   934.84   965.62   981.94
                              996.25  1116.44  1251.37  1320.61  1474.72
                             1622.13  1638.60  1671.21  1731.34  1899.21
                             1927.41  1939.70  2108.18  2257.20  2281.15
                             2291.89  2465.17  2483.51  5027.36  5178.52

 Zero-point correction=                           0.087916 (Hartree/Particle)
 Thermal correction to Energy=                    0.101209
 Thermal correction to Enthalpy=                  0.102153
 Thermal correction to Gibbs Free Energy=         0.047423
 Sum of electronic and zero-point Energies=          -1331.907952
 Sum of electronic and thermal Energies=             -1331.894659
 Sum of electronic and thermal Enthalpies=           -1331.893715
 Sum of electronic and thermal Free Energies=        -1331.948445

                     E (Thermal)             CV                S
                      KCal/Mol        Cal/Mol-Kelvin    Cal/Mol-Kelvin
 Total                   63.509             48.523            115.189
 Electronic               0.000              0.000              0.000
 Translational            0.889              2.981             42.413
 Rotational               0.889              2.981             32.321
 Vibrational             61.732             42.562             40.455
 Vibration     1          0.593              1.984              5.918
 Vibration     2          0.598              1.969              4.196
 Vibration     3          0.613              1.920              2.903
 Vibration     4          0.617              1.905              2.698
 Vibration     5          0.622              1.892              2.553
 Vibration     6          0.636              1.847              2.181
 Vibration     7          0.660              1.772              1.769
 Vibration     8          0.666              1.754              1.692
 Vibration     9          0.671              1.739              1.634
 Vibration    10          0.674              1.727              1.593
 Vibration    11          0.677              1.720              1.568
 Vibration    12          0.704              1.640              1.323
 Vibration    13          0.723              1.587              1.192
 Vibration    14          0.730              1.568              1.150
 Vibration    15          0.752              1.508              1.031
 Vibration    16          0.776              1.445              0.921
 Vibration    17          0.807              1.365              0.801
 Vibration    18          0.815              1.346              0.776
 Vibration    19          0.847              1.270              0.681
 Vibration    20          0.853              1.255              0.664
 Vibration    21          0.939              1.070              0.482
 Vibration    22          0.953              1.042              0.458

 Optimization completed.
    -- Stationary point found.
 Normal termination of Gaussian 16 at Thu May 19 15:30:17 2022.
