 Gaussian 16, Revision C.01,
 Gaussian 16:  ES64L-G16RevC.01  3-Jul-2019

 -----------------------------------------------------
 #m062X/gen 6D OPT Freq=noraman SCRF=(SMD,Solvent=h2o)
 -----------------------------------------------------

 ------------------
 HA.9.smd.a1c2.smd
 ------------------
 Symbolic Z-matrix:
 Charge =  0 Multiplicity = 1

 SCF Done:  E(RM062X) =  -950.470280452     A.U. after   15 cycles
 SCF Done:  E(RM062X) =  -950.473060836     A.U. after   14 cycles
 SCF Done:  E(RM062X) =  -950.477167877     A.U. after   14 cycles
 SCF Done:  E(RM062X) =  -950.477462514     A.U. after   12 cycles
 SCF Done:  E(RM062X) =  -950.477512936     A.U. after   12 cycles
 SCF Done:  E(RM062X) =  -950.477526217     A.U. after   13 cycles
 SCF Done:  E(RM062X) =  -950.477528368     A.U. after   12 cycles
 SCF Done:  E(RM062X) =  -950.477537684     A.U. after   13 cycles
 SCF Done:  E(RM062X) =  -950.451083574     A.U. after   15 cycles
 SCF Done:  E(RM062X) =  -950.477045396     A.U. after   15 cycles
 SCF Done:  E(RM062X) =  -950.477604697     A.U. after   13 cycles
 SCF Done:  E(RM062X) =  -950.477607146     A.U. after   11 cycles
 SCF Done:  E(RM062X) =  -950.477601469     A.U. after   13 cycles
 SCF Done:  E(RM062X) =  -950.477608501     A.U. after   11 cycles
 SCF Done:  E(RM062X) =  -950.477610078     A.U. after   11 cycles
 SCF Done:  E(RM062X) =  -950.477612484     A.U. after   12 cycles
 SCF Done:  E(RM062X) =  -950.477612307     A.U. after   11 cycles
 SCF Done:  E(RM062X) =  -950.477612833     A.U. after    9 cycles
 SCF Done:  E(RM062X) =  -950.477612932     A.U. after    9 cycles
 Optimization completed.
    -- Stationary point found.
 Normal termination of Gaussian 16 at Wed Jun 29 10:30:48 2022.

 ------------------------------------------------------------------
 #N Geom=AllCheck Guess=TCheck SCRF=Check GenChk RM062X/ChkBas Freq
 ------------------------------------------------------------------

 Structure from the checkpoint file:  "/jobfs/48670239.gadi-pbs/Gau-4027329.chk"
 ------------------
 HA.9.smd.a1c2.smd
 ------------------
 Charge =  0 Multiplicity = 1

                         Standard orientation:
 ---------------------------------------------------------------------
 Center     Atomic      Atomic             Coordinates (Angstroms)
 Number     Number       Type             X           Y           Z
 ---------------------------------------------------------------------
      1          6           0        0.499655    0.047857   -0.100321
      2          6           0       -0.071998    1.324327   -0.068061
      3          1           0        0.551572    2.213297   -0.089670
      4          6           0       -1.449224    1.442646   -0.016854
      5          1           0       -1.924707    2.418154    0.003025
      6          6           0       -2.253805    0.291892    0.002332
      7          8           0       -3.590752    0.511093    0.047205
      8          6           0       -1.674225   -0.981305   -0.027048
      9          1           0       -2.281716   -1.878308   -0.016660
     10          6           0       -0.286898   -1.098689   -0.074731
     11          1           0        0.169868   -2.083080   -0.101042
     12         16           0        2.261356   -0.102209   -0.114542
     13          8           0        2.603223   -1.455400   -0.556676
     14          8           0        2.812367    1.049183   -0.832825
     15          7           0        2.830765    0.025774    1.434360
     16          1           0        2.456490   -0.714122    2.032062
     17          1           0        2.621645    0.943159    1.834213
     18          6           0       -4.453130   -0.625745    0.062594
     19          1           0       -5.465944   -0.226631    0.097406
     20          1           0       -4.265270   -1.239835    0.948551
     21          1           0       -4.319952   -1.222627   -0.844825
 ---------------------------------------------------------------------

 SCF Done:  E(RM062X) =  -950.477612932     A.U. after    1 cycles

 The electronic state is 1-A.
 Alpha  occ. eigenvalues --  -90.17965 -19.69075 -19.66001 -19.65942 -14.80043
 Alpha  occ. eigenvalues --  -10.63526 -10.59343 -10.59274 -10.58169 -10.58067
 Alpha  occ. eigenvalues --  -10.56683 -10.56590  -8.48958  -6.41158  -6.41148
 Alpha  occ. eigenvalues --   -6.41012  -1.25853  -1.20532  -1.14417  -1.02885
 Alpha  occ. eigenvalues --   -0.98410  -0.88365  -0.86795  -0.80975  -0.75316
 Alpha  occ. eigenvalues --   -0.71511  -0.68396  -0.64214  -0.61351  -0.61303
 Alpha  occ. eigenvalues --   -0.58887  -0.57511  -0.55329  -0.54004  -0.53319
 Alpha  occ. eigenvalues --   -0.51041  -0.49059  -0.48808  -0.46811  -0.43966
 Alpha  occ. eigenvalues --   -0.43620  -0.42186  -0.41863  -0.40560  -0.39876
 Alpha  occ. eigenvalues --   -0.39187  -0.38173  -0.32850  -0.29603
 Alpha virt. eigenvalues --   -0.00567   0.00411   0.01313   0.03070   0.03661
 Alpha virt. eigenvalues --    0.03958   0.04654   0.04874   0.05720   0.06299
 Alpha virt. eigenvalues --    0.06870   0.07642   0.08886   0.09140   0.09987

 Mulliken charges:
               1
     1  C   -0.676954
     2  C   -0.068135
     3  H    0.282147
     4  C   -0.401040
     5  H    0.269633
     6  C    0.070402
     7  O   -0.443224
     8  C    0.750124
     9  H    0.268508
    10  C   -0.908386
    11  H    0.283092
    12  S    1.516846
    13  O   -0.659009
    14  O   -0.642922
    15  N   -1.012063
    16  H    0.502273
    17  H    0.499841
    18  C   -0.363110
    19  H    0.246403
    20  H    0.242556
    21  H    0.243020
 Sum of Mulliken charges =   0.00000

 Dipole moment (field-independent basis, Debye):
    X=             -8.1470    Y=             -0.7532    Z=              5.6447  Tot=              9.9400
 Quadrupole moment (field-independent basis, Debye-Ang):
   XX=            -86.5656   YY=            -74.3389   ZZ=            -75.9066
   XY=             10.7169   XZ=             13.1639   YZ=              0.5757

  Exact polarizability:     214.050       0.750     170.468       0.174      -0.107     111.694
 Approx polarizability:     171.499      -0.441     154.775      -1.185      -0.290      99.532

                      1                      2                      3
                      A                      A                      A
 Frequencies --     36.6865                72.1705               118.7433
 Red. masses --      4.4971                 4.1218                 4.1650
 Frc consts  --      0.0036                 0.0126                 0.0346
 IR Inten    --      7.2783                 3.8677                18.5849

                      4                      5                      6
                      A                      A                      A
 Frequencies --    150.3194               206.6554               246.3457
 Red. masses --      6.1326                 3.4225                 3.6064
 Frc consts  --      0.0816                 0.0861                 0.1289
 IR Inten    --      6.3655                 8.4547                 9.7475

                      7                      8                      9
                      A                      A                      A
 Frequencies --    280.5760               289.2146               305.5143
 Red. masses --      1.9932                 1.4023                 2.3030
 Frc consts  --      0.0924                 0.0691                 0.1267
 IR Inten    --     21.6930                 3.4888                 7.8805

                     10                     11                     12
                      A                      A                      A
 Frequencies --    366.6583               401.3474               425.9533
 Red. masses --      5.1027                 3.0665                 3.0171
 Frc consts  --      0.4042                 0.2910                 0.3225
 IR Inten    --      4.9410                14.1900                 0.0740

                     13                     14                     15
                      A                      A                      A
 Frequencies --    453.3770               482.6738               494.9258
 Red. masses --      4.0378                 6.5272                 4.8025
 Frc consts  --      0.4890                 0.8959                 0.6931
 IR Inten    --     24.6170                35.3494                13.3354

                     16                     17                     18
                      A                      A                      A
 Frequencies --    541.5718               559.6619               634.9728
 Red. masses --      3.1694                 5.8468                 6.9902
 Frc consts  --      0.5477                 1.0790                 1.6605
 IR Inten    --    119.4580               166.5568                 3.2492

                     19                     20                     21
                      A                      A                      A
 Frequencies --    661.9571               728.5184               754.2669
 Red. masses --      5.5969                 3.6961                 2.7610
 Frc consts  --      1.4450                 1.1558                 0.9255
 IR Inten    --      9.9885                 3.4470               746.7750

                     22                     23                     24
                      A                      A                      A
 Frequencies --    827.1263               843.0360               857.9590
 Red. masses --      5.2609                 1.2531                 1.6630
 Frc consts  --      2.1206                 0.5247                 0.7212
 IR Inten    --    173.5128                 8.5677               133.4694

                     25                     26                     27
                      A                      A                      A
 Frequencies --    899.5344               987.2310              1005.5649
 Red. masses --      2.1372                 1.3191                 1.3418
 Frc consts  --      1.0189                 0.7575                 0.7994
 IR Inten    --     17.2919                 0.0975                 0.0187

                     28                     29                     30
                      A                      A                      A
 Frequencies --   1021.3769              1082.6032              1108.9069
 Red. masses --      3.2700                 6.4834                 4.4127
 Frc consts  --      2.0099                 4.4771                 3.1970
 IR Inten    --      6.1797                72.1050               139.0293

                     31                     32                     33
                      A                      A                      A
 Frequencies --   1132.9070              1144.8025              1148.5383
 Red. masses --      1.2612                 1.2696                 3.7813
 Frc consts  --      0.9537                 0.9804                 2.9388
 IR Inten    --      7.7337                34.1782               629.3189

                     34                     35                     36
                      A                      A                      A
 Frequencies --   1188.6494              1203.0775              1221.5798
 Red. masses --      1.2729                 1.2790                 1.4112
 Frc consts  --      1.0597                 1.0907                 1.2408
 IR Inten    --      1.8829                 8.6048                17.2355

                     37                     38                     39
                      A                      A                      A
 Frequencies --   1292.4874              1297.2439              1331.0291
 Red. masses --      4.6454                 7.7449                 1.2810
 Frc consts  --      4.5722                 7.6791                 1.3372
 IR Inten    --    569.7348               482.4490                 3.0882

                     40                     41                     42
                      A                      A                      A
 Frequencies --   1363.1184              1464.2854              1492.5728
 Red. masses --      8.9783                 3.4318                 1.1915
 Frc consts  --      9.8290                 4.3353                 1.5639
 IR Inten    --     74.3108                11.4247                25.9850

                     43                     44                     45
                      A                      A                      A
 Frequencies --   1509.6514              1517.0237              1543.7828
 Red. masses --      1.0445                 1.0591                 2.3314
 Frc consts  --      1.4025                 1.4361                 3.2737
 IR Inten    --     19.3868                27.7272               162.9966

                     46                     47                     48
                      A                      A                      A
 Frequencies --   1595.1584              1656.7248              1670.2047
 Red. masses --      1.0967                 6.8671                 6.5511
 Frc consts  --      1.6441                11.1051                10.7673
 IR Inten    --    104.9109                98.0317               192.0225

                     49                     50                     51
                      A                      A                      A
 Frequencies --   3092.8191              3170.6128              3217.4222
 Red. masses --      1.0320                 1.1084                 1.1043
 Frc consts  --      5.8164                 6.5648                 6.7355
 IR Inten    --     49.5719                34.2343                17.7526

                     52                     53                     54
                      A                      A                      A
 Frequencies --   3242.8920              3249.5900              3253.7122
 Red. masses --      1.0895                 1.0915                 1.0968
 Frc consts  --      6.7508                 6.7911                 6.8410
 IR Inten    --      0.2892                 0.6355                 2.5024

                     55                     56                     57
                      A                      A                      A
 Frequencies --   3274.3575              3497.2640              3595.9405
 Red. masses --      1.0935                 1.0489                 1.0976
 Frc consts  --      6.9078                 7.5587                 8.3621
 IR Inten    --      1.8749               128.3987               144.5306

 - Thermochemistry -
 -------------------
 Temperature   298.150 Kelvin.  Pressure   1.00000 Atm.
 Atom     1 has atomic number  6 and mass  12.00000

 Molecular mass:   187.03032 amu.
 Principal axes and moments of inertia in atomic units:
                           1         2         3
     Eigenvalues --   755.614584365.018464730.08878
           X            0.99989   0.01286   0.00764
           Y           -0.01288   0.99991   0.00221
           Z           -0.00761  -0.00231   0.99997
 This molecule is an asymmetric top.
 Rotational symmetry number  1.
 Warning -- assumption of classical behavior for rotation
           may cause significant error
 Rotational temperatures (Kelvin)      0.11463     0.01984     0.01831
 Rotational constants (GHZ):           2.38844     0.41346     0.38154
 Zero-point vibrational energy     425947.7 (Joules/Mol)
                                  101.80395 (Kcal/Mol)
 Warning -- explicit consideration of  17 degrees of freedom as
           vibrations may cause significant error
 Vibrational temperatures:     52.78   103.84   170.85   216.28   297.33
          (Kelvin)            354.44   403.69   416.12   439.57   527.54
                              577.45   612.85   652.31   694.46   712.09
                              779.20   805.23   913.58   952.41  1048.18
                             1085.22  1190.05  1212.94  1234.41  1294.23
                             1420.41  1446.78  1469.53  1557.62  1595.47
                             1630.00  1647.12  1652.49  1710.20  1730.96
                             1757.58  1859.60  1866.44  1915.05  1961.22
                             2106.78  2147.48  2172.05  2182.66  2221.16
                             2295.08  2383.66  2403.05  4449.88  4561.80
                             4629.15  4665.80  4675.44  4681.37  4711.07
                             5031.78  5173.76

 Zero-point correction=                           0.162235 (Hartree/Particle)
 Thermal correction to Energy=                    0.173503
 Thermal correction to Enthalpy=                  0.174447
 Thermal correction to Gibbs Free Energy=         0.124458
 Sum of electronic and zero-point Energies=           -950.315378
 Sum of electronic and thermal Energies=              -950.304110
 Sum of electronic and thermal Enthalpies=            -950.303165
 Sum of electronic and thermal Free Energies=         -950.353154

                     E (Thermal)             CV                S
                      KCal/Mol        Cal/Mol-Kelvin    Cal/Mol-Kelvin
 Total                  108.875             42.722            105.211
 Electronic               0.000              0.000              0.000
 Translational            0.889              2.981             41.584
 Rotational               0.889              2.981             31.123
 Vibrational            107.098             36.760             32.503
 Vibration     1          0.594              1.982              5.430
 Vibration     2          0.598              1.967              4.093
 Vibration     3          0.609              1.934              3.121
 Vibration     4          0.618              1.902              2.668
 Vibration     5          0.641              1.830              2.073
 Vibration     6          0.661              1.769              1.757
 Vibration     7          0.680              1.710              1.530
 Vibration     8          0.686              1.694              1.479
 Vibration     9          0.696              1.663              1.387
 Vibration    10          0.740              1.541              1.094
 Vibration    11          0.767              1.467              0.958
 Vibration    12          0.788              1.414              0.872
 Vibration    13          0.812              1.353              0.786
 Vibration    14          0.839              1.288              0.703
 Vibration    15          0.851              1.261              0.671
 Vibration    16          0.897              1.158              0.562
 Vibration    17          0.915              1.119              0.525

 Optimization completed.
    -- Stationary point found.
 Normal termination of Gaussian 16 at Wed Jun 29 10:34:39 2022.
