 Gaussian 16, Revision C.01,
 Gaussian 16:  ES64L-G16RevC.01  3-Jul-2019

 --------------------------------------------------
 #M062X/gen 6D INT(grid=ultrafine) OPT Freq=noraman
 --------------------------------------------------

 -----------
 A.1.a1.freq
 -----------
 Symbolic Z-matrix:
 Charge = -1 Multiplicity = 1

 SCF Done:  E(RM062X) =  -835.412620792     A.U. after   16 cycles
 SCF Done:  E(RM062X) =  -835.414372294     A.U. after   16 cycles
 SCF Done:  E(RM062X) =  -835.415050937     A.U. after   16 cycles
 SCF Done:  E(RM062X) =  -835.415255279     A.U. after   16 cycles
 SCF Done:  E(RM062X) =  -835.415370350     A.U. after   17 cycles
 SCF Done:  E(RM062X) =  -835.415399824     A.U. after   15 cycles
 SCF Done:  E(RM062X) =  -835.415407915     A.U. after   13 cycles
 SCF Done:  E(RM062X) =  -835.415408603     A.U. after   13 cycles
 SCF Done:  E(RM062X) =  -835.415409352     A.U. after   13 cycles
 SCF Done:  E(RM062X) =  -835.415409653     A.U. after   13 cycles
 SCF Done:  E(RM062X) =  -835.415409722     A.U. after   12 cycles
 Optimization completed.
    -- Stationary point found.
 Normal termination of Gaussian 16 at Fri May 20 14:18:06 2022.

 ------------------------------------------------------------------
 #N Geom=AllCheck Guess=TCheck SCRF=Check GenChk RM062X/ChkBas Freq
 ------------------------------------------------------------------

 Structure from the checkpoint file:  "/jobfs/40735762.gadi-pbs/Gau-966735.chk"
 -----------
 A.1.a1.freq
 -----------
 Charge = -1 Multiplicity = 1

                         Standard orientation:
 ---------------------------------------------------------------------
 Center     Atomic      Atomic             Coordinates (Angstroms)
 Number     Number       Type             X           Y           Z
 ---------------------------------------------------------------------
      1          6           0        0.275028   -0.003733   -0.056634
      2          6           0        0.974505   -1.208279   -0.048305
      3          1           0        0.410911   -2.135583   -0.105934
      4          6           0        2.369489   -1.204619    0.006007
      5          1           0        2.914145   -2.146422    0.005242
      6          6           0        3.066500    0.002512    0.053730
      7          1           0        4.153277    0.005519    0.094247
      8          6           0        2.360987    1.208497    0.040090
      9          1           0        2.900602    2.152612    0.069069
     10          6           0        0.969096    1.205736   -0.015760
     11          1           0        0.400344    2.131456   -0.037004
     12         16           0       -1.548853    0.009240   -0.026995
     13          8           0       -1.877958    1.183704   -0.857094
     14          8           0       -1.886600   -1.324967   -0.588291
     15          7           0       -1.997955    0.236745    1.456120
     16          1           0       -1.989121   -0.683222    1.901771
 ---------------------------------------------------------------------

 SCF Done:  E(RM062X) =  -835.415409722     A.U. after    1 cycles

 The electronic state is 1-A.
 Alpha  occ. eigenvalues --  -89.96455 -19.44797 -19.44562 -14.55140 -10.44685
 Alpha  occ. eigenvalues --  -10.44536 -10.44463 -10.43580 -10.43487 -10.43436
 Alpha  occ. eigenvalues --   -8.27304  -6.19530  -6.19470  -6.19388  -1.03799
 Alpha  occ. eigenvalues --   -0.92306  -0.84451  -0.79135  -0.72842  -0.72771
 Alpha  occ. eigenvalues --   -0.58472  -0.57237  -0.51501  -0.47175  -0.41816
 Alpha  occ. eigenvalues --   -0.40232  -0.39220  -0.37965  -0.37377  -0.34559
 Alpha  occ. eigenvalues --   -0.32198  -0.31078  -0.28583  -0.25058  -0.21789
 Alpha  occ. eigenvalues --   -0.20846  -0.19483  -0.19146  -0.17620  -0.15471
 Alpha  occ. eigenvalues --   -0.12324
 Alpha virt. eigenvalues --    0.10756   0.12414   0.13057   0.13256   0.13479
 Alpha virt. eigenvalues --    0.15763   0.16281   0.16880   0.18521   0.19411
 Alpha virt. eigenvalues --    0.19639   0.19721   0.20482   0.22683   0.23494

 Mulliken charges:
               1
     1  C   -0.746209
     2  C    0.124577
     3  H    0.234692
     4  C   -0.106460
     5  H    0.176857
     6  C   -0.246045
     7  H    0.173363
     8  C   -0.070555
     9  H    0.178038
    10  C   -0.389830
    11  H    0.234675
    12  S    1.250113
    13  O   -0.633434
    14  O   -0.678331
    15  N   -0.833866
    16  H    0.332415
 Sum of Mulliken charges =  -1.00000

 Dipole moment (field-independent basis, Debye):
    X=              8.4859    Y=             -1.2804    Z=              0.5511  Tot=              8.5997
 Quadrupole moment (field-independent basis, Debye-Ang):
   XX=            -91.5473   YY=            -72.8832   ZZ=            -78.9527
   XY=              3.0776   XZ=             -0.6650   YZ=             -3.1675

  Exact polarizability:     140.288      -0.525     108.957      -4.154       0.865      77.945
 Approx polarizability:     155.121      -1.336     148.982      -2.803       1.183      99.419

                      1                      2                      3
                      A                      A                      A
 Frequencies --     23.6750               119.6377               182.9332
 Red. masses --      5.0890                 5.1733                 6.3402
 Frc consts  --      0.0017                 0.0436                 0.1250
 IR Inten    --      0.5220                 0.2251                 2.6882

                      4                      5                      6
                      A                      A                      A
 Frequencies --    271.4935               298.0853               329.4196
 Red. masses --      3.5737                 7.6145                 3.3477
 Frc consts  --      0.1552                 0.3986                 0.2140
 IR Inten    --      3.0721                10.7219                21.8072

                      7                      8                      9
                      A                      A                      A
 Frequencies --    410.9326               433.0569               468.1718
 Red. masses --      2.9138                 2.3036                 3.5408
 Frc consts  --      0.2899                 0.2545                 0.4573
 IR Inten    --      0.1414                34.0764                21.8844

                     10                     11                     12
                      A                      A                      A
 Frequencies --    499.6563               549.5029               593.7226
 Red. masses --      3.9115                 5.0668                11.9255
 Frc consts  --      0.5754                 0.9014                 2.4768
 IR Inten    --     35.1778                50.3257               136.3979

                     13                     14                     15
                      A                      A                      A
 Frequencies --    626.7087               705.0068               715.6178
 Red. masses --      6.3774                 2.1211                 6.2676
 Frc consts  --      1.4758                 0.6211                 1.8911
 IR Inten    --      0.1217                39.1100                39.9902

                     16                     17                     18
                      A                      A                      A
 Frequencies --    765.3398               869.4999               938.0538
 Red. masses --      1.7165                 1.2516                 1.4128
 Frc consts  --      0.5924                 0.5575                 0.7325
 IR Inten    --     27.2598                 0.1099                 2.2081

                     19                     20                     21
                      A                      A                      A
 Frequencies --    957.0961              1000.0463              1003.4349
 Red. masses --     12.4128                 1.3686                 1.2639
 Frc consts  --      6.6993                 0.8064                 0.7498
 IR Inten    --    208.6247                 0.2845                 0.3939

                     22                     23                     24
                      A                      A                      A
 Frequencies --   1016.6891              1057.8058              1098.6104
 Red. masses --      6.3719                 2.4714                 1.5071
 Frc consts  --      3.8806                 1.6293                 1.0717
 IR Inten    --     16.2304                 2.6440                20.4374

                     25                     26                     27
                      A                      A                      A
 Frequencies --   1113.9132              1131.9224              1146.7017
 Red. masses --      2.8331                 1.9608                 3.4635
 Frc consts  --      2.0711                 1.4802                 2.6833
 IR Inten    --    232.0411                32.7759               157.5663

                     28                     29                     30
                      A                      A                      A
 Frequencies --   1174.6274              1194.5624              1263.8781
 Red. masses --      1.1168                 1.1430                 5.9261
 Frc consts  --      0.9079                 0.9609                 5.5774
 IR Inten    --      0.1477                 1.1196               223.2680

                     31                     32                     33
                      A                      A                      A
 Frequencies --   1325.4119              1349.7492              1487.5284
 Red. masses --      1.5372                 4.0479                 2.2902
 Frc consts  --      1.5911                 4.3450                 2.9858
 IR Inten    --      0.4185                 2.5554                 8.5684

                     34                     35                     36
                      A                      A                      A
 Frequencies --   1524.6930              1663.6164              1668.6448
 Red. masses --      2.2543                 6.3767                 5.9263
 Frc consts  --      3.0877                10.3981                 9.7222
 IR Inten    --      4.8423                 1.3001                 9.0444

                     37                     38                     39
                      A                      A                      A
 Frequencies --   3188.2359              3199.6380              3215.1434
 Red. masses --      1.0841                 1.0896                 1.0950
 Frc consts  --      6.4925                 6.5724                 6.6693
 IR Inten    --      0.2773                41.5082                49.8641

                     40                     41                     42
                      A                      A                      A
 Frequencies --   3232.2770              3233.6109              3501.7384
 Red. masses --      1.0922                 1.0940                 1.0730
 Frc consts  --      6.7230                 6.7396                 7.7524
 IR Inten    --     10.9182                12.0415                 4.8405

 - Thermochemistry -
 -------------------
 Temperature   298.150 Kelvin.  Pressure   1.00000 Atm.
 Atom     1 has atomic number  6 and mass  12.00000

 Molecular mass:   156.01193 amu.
 Principal axes and moments of inertia in atomic units:
                           1         2         3
     Eigenvalues --   681.670662162.782222482.05303
           X            0.99998   0.00305  -0.00614
           Y           -0.00312   0.99993  -0.01146
           Z            0.00610   0.01148   0.99992
 This molecule is an asymmetric top.
 Rotational symmetry number  1.
 Warning -- assumption of classical behavior for rotation
           may cause significant error
 Rotational temperatures (Kelvin)      0.12706     0.04005     0.03490
 Rotational constants (GHZ):           2.64753     0.83445     0.72712
 Zero-point vibrational energy     302356.7 (Joules/Mol)
                                   72.26498 (Kcal/Mol)
 Warning -- explicit consideration of  12 degrees of freedom as
           vibrations may cause significant error
 Vibrational temperatures:     34.06   172.13   263.20   390.62   428.88
          (Kelvin)            473.96   591.24   623.07   673.59   718.89
                              790.61   854.23   901.69  1014.35  1029.61
                             1101.15  1251.02  1349.65  1377.05  1438.84
                             1443.72  1462.79  1521.95  1580.66  1602.67
                             1628.58  1649.85  1690.03  1718.71  1818.44
                             1906.97  1941.99  2140.22  2193.69  2393.57
                             2400.81  4587.16  4603.57  4625.87  4650.53
                             4652.44  5038.22

 Zero-point correction=                           0.115162 (Hartree/Particle)
 Thermal correction to Energy=                    0.123753
 Thermal correction to Enthalpy=                  0.124697
 Thermal correction to Gibbs Free Energy=         0.080375
 Sum of electronic and zero-point Energies=           -835.300248
 Sum of electronic and thermal Energies=              -835.291657
 Sum of electronic and thermal Enthalpies=            -835.290713
 Sum of electronic and thermal Free Energies=         -835.335035

                     E (Thermal)             CV                S
                      KCal/Mol        Cal/Mol-Kelvin    Cal/Mol-Kelvin
 Total                   77.656             32.651             93.284
 Electronic               0.000              0.000              0.000
 Translational            0.889              2.981             41.044
 Rotational               0.889              2.981             29.683
 Vibrational             75.879             26.690             22.557
 Vibration     1          0.593              1.985              6.299
 Vibration     2          0.609              1.933              3.106
 Vibration     3          0.630              1.863              2.298
 Vibration     4          0.675              1.726              1.587
 Vibration     5          0.691              1.677              1.428
 Vibration     6          0.712              1.617              1.263
 Vibration     7          0.775              1.446              0.923
 Vibration     8          0.794              1.398              0.849
 Vibration     9          0.825              1.321              0.743
 Vibration    10          0.855              1.251              0.659
 Vibration    11          0.905              1.141              0.545
 Vibration    12          0.951              1.045              0.461

 Optimization completed.
    -- Stationary point found.
 Normal termination of Gaussian 16 at Fri May 20 14:20:29 2022.
