 Gaussian 16, Revision C.01,
 Gaussian 16:  ES64L-G16RevC.01  3-Jul-2019

 --------------------------------------------------
 #M062X/gen 6D INT(grid=ultrafine) OPT Freq=noraman
 --------------------------------------------------

 ---------
 A.10.freq
 ---------
 Symbolic Z-matrix:
 Charge = -1 Multiplicity = 1

 SCF Done:  E(RM062X) =  -930.029902274     A.U. after   17 cycles
 SCF Done:  E(RM062X) =  -930.032669075     A.U. after   15 cycles
 SCF Done:  E(RM062X) =  -930.033637367     A.U. after   15 cycles
 SCF Done:  E(RM062X) =  -930.034002990     A.U. after   16 cycles
 SCF Done:  E(RM062X) =  -930.034164954     A.U. after   16 cycles
 SCF Done:  E(RM062X) =  -930.034211144     A.U. after   16 cycles
 SCF Done:  E(RM062X) =  -930.034230678     A.U. after   14 cycles
 SCF Done:  E(RM062X) =  -930.034232401     A.U. after   13 cycles
 SCF Done:  E(RM062X) =  -930.034234419     A.U. after   13 cycles
 SCF Done:  E(RM062X) =  -930.034240791     A.U. after   15 cycles
 SCF Done:  E(RM062X) =  -930.034238356     A.U. after   16 cycles
 SCF Done:  E(RM062X) =  -930.034245914     A.U. after   14 cycles
 SCF Done:  E(RM062X) =  -930.034244751     A.U. after   14 cycles
 SCF Done:  E(RM062X) =  -930.034247144     A.U. after   14 cycles
 SCF Done:  E(RM062X) =  -930.034247615     A.U. after   12 cycles
 SCF Done:  E(RM062X) =  -930.034247662     A.U. after   11 cycles
 SCF Done:  E(RM062X) =  -930.034247704     A.U. after   12 cycles
 SCF Done:  E(RM062X) =  -930.034247732     A.U. after   11 cycles
 Optimization completed.
    -- Stationary point found.
 Normal termination of Gaussian 16 at Wed Jun 29 11:51:18 2022.

 ------------------------------------------------------------------
 #N Geom=AllCheck Guess=TCheck SCRF=Check GenChk RM062X/ChkBas Freq
 ------------------------------------------------------------------

 Structure from the checkpoint file:  "/jobfs/48700552.gadi-pbs/Gau-1298218.chk"
 ---------
 A.10.freq
 ---------
 Charge = -1 Multiplicity = 1

                         Standard orientation:
 ---------------------------------------------------------------------
 Center     Atomic      Atomic             Coordinates (Angstroms)
 Number     Number       Type             X           Y           Z
 ---------------------------------------------------------------------
      1          6           0       -0.560594   -0.076213    0.003820
      2          6           0        0.231769    1.062742    0.077277
      3          1           0       -0.258345    2.033494    0.085328
      4          6           0        1.624368    0.966695    0.108821
      5          1           0        2.220233    1.873437    0.156266
      6          6           0        2.243685   -0.289057    0.075217
      7          7           0        3.644054   -0.437995    0.140958
      8          6           0        1.437647   -1.434947    0.000678
      9          1           0        1.912081   -2.415622   -0.023099
     10          6           0        0.051737   -1.328439   -0.033989
     11          1           0       -0.577537   -2.211329   -0.103825
     12         16           0       -2.376075    0.082315    0.009583
     13          8           0       -2.805230   -1.214615   -0.580051
     14          8           0       -2.685829    0.281449    1.439111
     15          7           0       -2.750322    1.356723   -0.821482
     16          1           0       -2.756395    1.065284   -1.801502
     17          6           0        4.480520    0.704478   -0.160587
     18          1           0        3.951091   -1.282609   -0.325546
     19          1           0        4.395440    1.452065    0.634797
     20          1           0        4.225217    1.193508   -1.115207
     21          1           0        5.522982    0.377417   -0.196770
 ---------------------------------------------------------------------

 SCF Done:  E(RM062X) =  -930.034247732     A.U. after    1 cycles

 The electronic state is 1-A.
 Alpha  occ. eigenvalues --  -89.95996 -19.44344 -19.43951 -14.68195 -14.54751
 Alpha  occ. eigenvalues --  -10.49691 -10.48514 -10.44033 -10.43980 -10.43430
 Alpha  occ. eigenvalues --  -10.43339 -10.42480  -8.26839  -6.19063  -6.18997
 Alpha  occ. eigenvalues --   -6.18933  -1.03224  -0.94940  -0.91617  -0.83504
 Alpha  occ. eigenvalues --   -0.78835  -0.73624  -0.72635  -0.67641  -0.58648
 Alpha  occ. eigenvalues --   -0.56887  -0.51355  -0.49795  -0.46120  -0.43022
 Alpha  occ. eigenvalues --   -0.42339  -0.40471  -0.39032  -0.37506  -0.36797
 Alpha  occ. eigenvalues --   -0.36473  -0.34591  -0.33635  -0.32279  -0.28362
 Alpha  occ. eigenvalues --   -0.25972  -0.24456  -0.21168  -0.19866  -0.19078
 Alpha  occ. eigenvalues --   -0.17663  -0.15176  -0.14971  -0.12164
 Alpha virt. eigenvalues --    0.08514   0.09862   0.11857   0.12567   0.13357
 Alpha virt. eigenvalues --    0.13850   0.14571   0.15452   0.16033   0.16927
 Alpha virt. eigenvalues --    0.17710   0.19142   0.19780   0.20234   0.20341

 Mulliken charges:
               1
     1  C   -1.561320
     2  C   -0.189398
     3  H    0.241479
     4  C    1.021255
     5  H    0.171949
     6  C    0.356569
     7  N   -0.562479
     8  C   -0.550810
     9  H    0.166898
    10  C   -0.444403
    11  H    0.238417
    12  S    1.362916
    13  O   -0.676414
    14  O   -0.600448
    15  N   -0.843014
    16  H    0.332462
    17  C   -0.440439
    18  H    0.373762
    19  H    0.212835
    20  H    0.202058
    21  H    0.188126
 Sum of Mulliken charges =  -1.00000

 Dipole moment (field-independent basis, Debye):
    X=             13.3921    Y=             -1.0813    Z=             -2.2265  Tot=             13.6189
 Quadrupole moment (field-independent basis, Debye-Ang):
   XX=           -118.6729   YY=            -87.4717   ZZ=            -90.1347
   XY=              2.9934   XZ=             -0.0296   YZ=              0.3710

  Exact polarizability:     178.525      -3.313     127.275       2.039      -1.314      90.383
 Approx polarizability:     183.793      -3.833     172.840       2.026       0.701     117.635

                      1                      2                      3
                      A                      A                      A
 Frequencies --     23.1983                64.1881               106.9019
 Red. masses --      5.0664                 4.1778                 3.1500
 Frc consts  --      0.0016                 0.0101                 0.0212
 IR Inten    --      0.0745                 0.2079                 0.7141

                      4                      5                      6
                      A                      A                      A
 Frequencies --    141.0478               192.3934               245.5422
 Red. masses --      5.8382                 2.7743                 5.0008
 Frc consts  --      0.0684                 0.0605                 0.1776
 IR Inten    --      1.5972                 9.0944                 0.1755

                      7                      8                      9
                      A                      A                      A
 Frequencies --    268.9235               272.4374               344.7634
 Red. masses --      1.9795                 2.2737                 3.0470
 Frc consts  --      0.0843                 0.0994                 0.2134
 IR Inten    --      5.8480                 0.1993                14.0648

                     10                     11                     12
                      A                      A                      A
 Frequencies --    360.0561               419.0305               429.6868
 Red. masses --      3.9353                 3.0229                 2.3602
 Frc consts  --      0.3006                 0.3127                 0.2567
 IR Inten    --     18.1625                 0.4646                59.4947

                     13                     14                     15
                      A                      A                      A
 Frequencies --    456.7000               500.1121               519.8293
 Red. masses --      3.1518                 2.0416                 7.3857
 Frc consts  --      0.3873                 0.3008                 1.1759
 IR Inten    --      9.5249                53.8404                41.4320

                     16                     17                     18
                      A                      A                      A
 Frequencies --    537.6525               556.7954               617.4005
 Red. masses --      4.2536                 2.8325                 3.1014
 Frc consts  --      0.7245                 0.5174                 0.6965
 IR Inten    --    165.4343                59.5339                32.6257

                     19                     20                     21
                      A                      A                      A
 Frequencies --    644.3384               683.2221               738.3889
 Red. masses --      7.0340                 3.1902                 3.7259
 Frc consts  --      1.7206                 0.8774                 1.1969
 IR Inten    --      5.9992               129.5697                 6.6933

                     22                     23                     24
                      A                      A                      A
 Frequencies --    826.1834               834.6858               844.9802
 Red. masses --      3.1255                 1.2846                 1.8087
 Frc consts  --      1.2570                 0.5273                 0.7609
 IR Inten    --     10.5451                 2.5269                48.3016

                     25                     26                     27
                      A                      A                      A
 Frequencies --    956.3462               972.8501               992.1035
 Red. masses --     12.2464                 1.3494                 1.3406
 Frc consts  --      6.5992                 0.7525                 0.7774
 IR Inten    --    260.6109                 1.5825                 0.9513

                     28                     29                     30
                      A                      A                      A
 Frequencies --   1030.9679              1094.2078              1115.5074
 Red. masses --      3.2824                 2.0820                 2.7070
 Frc consts  --      2.0556                 1.4687                 1.9846
 IR Inten    --      6.3716                12.6132               244.1346

                     31                     32                     33
                      A                      A                      A
 Frequencies --   1128.8318              1138.5661              1147.2550
 Red. masses --      1.4320                 2.3089                 2.6006
 Frc consts  --      1.0751                 1.7635                 2.0167
 IR Inten    --     44.4809                39.2975               128.7603

                     34                     35                     36
                      A                      A                      A
 Frequencies --   1157.3565              1186.8487              1206.0723
 Red. masses --      1.3626                 1.8029                 1.2005
 Frc consts  --      1.0754                 1.4963                 1.0289
 IR Inten    --      9.6450                12.9448                 8.1397

                     37                     38                     39
                      A                      A                      A
 Frequencies --   1256.8901              1296.3274              1324.0710
 Red. masses --      5.2110                 2.8231                 1.3931
 Frc consts  --      4.8503                 2.7952                 1.4390
 IR Inten    --    242.1823                62.1974                 3.6568

                     40                     41                     42
                      A                      A                      A
 Frequencies --   1351.9139              1436.6502              1475.8538
 Red. masses --      5.3925                 2.4053                 1.2098
 Frc consts  --      5.8068                 2.9250                 1.5526
 IR Inten    --     43.9814                 6.9797                 0.5988

                     43                     44                     45
                      A                      A                      A
 Frequencies --   1507.3606              1521.7776              1546.8621
 Red. masses --      1.1489                 1.4161                 1.1401
 Frc consts  --      1.5380                 1.9322                 1.6073
 IR Inten    --     14.1864                 6.7671                 3.5077

                     46                     47                     48
                      A                      A                      A
 Frequencies --   1556.8346              1664.0614              1683.6447
 Red. masses --      2.2500                 6.0838                 6.2333
 Frc consts  --      3.2131                 9.9257                10.4105
 IR Inten    --    135.9667                10.7140                79.0987

                     49                     50                     51
                      A                      A                      A
 Frequencies --   3014.5507              3109.4098              3154.3795
 Red. masses --      1.0540                 1.0814                 1.1015
 Frc consts  --      5.6436                 6.1600                 6.4574
 IR Inten    --     96.5890                43.9421                36.5207

                     52                     53                     54
                      A                      A                      A
 Frequencies --   3178.3461              3217.1233              3231.4690
 Red. masses --      1.0890                 1.0873                 1.0931
 Frc consts  --      6.4814                 6.6302                 6.7253
 IR Inten    --     39.8427                 4.7680                22.0765

                     55                     56                     57
                      A                      A                      A
 Frequencies --   3235.6239              3501.3932              3605.5700
 Red. masses --      1.0921                 1.0729                 1.0758
 Frc consts  --      6.7365                 7.7500                 8.2402
 IR Inten    --      6.0714                 4.8866                 6.8683

 - Thermochemistry -
 -------------------
 Temperature   298.150 Kelvin.  Pressure   1.00000 Atm.
 Atom     1 has atomic number  6 and mass  12.00000

 Molecular mass:   185.03847 amu.
 Principal axes and moments of inertia in atomic units:
                           1         2         3
     Eigenvalues --   750.314164387.483024752.76820
           X            0.99998   0.00588   0.00058
           Y           -0.00587   0.99991  -0.01213
           Z           -0.00065   0.01212   0.99993
 This molecule is an asymmetric top.
 Rotational symmetry number  1.
 Warning -- assumption of classical behavior for rotation
           may cause significant error
 Rotational temperatures (Kelvin)      0.11544     0.01974     0.01822
 Rotational constants (GHZ):           2.40531     0.41134     0.37972
 Zero-point vibrational energy     422434.2 (Joules/Mol)
                                  100.96420 (Kcal/Mol)
 Warning -- explicit consideration of  18 degrees of freedom as
           vibrations may cause significant error
 Vibrational temperatures:     33.38    92.35   153.81   202.94   276.81
          (Kelvin)            353.28   386.92   391.98   496.04   518.04
                              602.89   618.22   657.09   719.55   747.92
                              773.56   801.10   888.30   927.06   983.00
                             1062.38  1188.69  1200.93  1215.74  1375.97
                             1399.71  1427.42  1483.33  1574.32  1604.97
                             1624.14  1638.14  1650.64  1665.18  1707.61
                             1735.27  1808.38  1865.13  1905.04  1945.10
                             2067.02  2123.42  2168.76  2189.50  2225.59
                             2239.94  2394.21  2422.39  4337.27  4473.75
                             4538.45  4572.93  4628.72  4649.36  4655.34
                             5037.72  5187.61

 Zero-point correction=                           0.160897 (Hartree/Particle)
 Thermal correction to Energy=                    0.172267
 Thermal correction to Enthalpy=                  0.173211
 Thermal correction to Gibbs Free Energy=         0.122491
 Sum of electronic and zero-point Energies=           -929.873351
 Sum of electronic and thermal Energies=              -929.861981
 Sum of electronic and thermal Enthalpies=            -929.861037
 Sum of electronic and thermal Free Energies=         -929.911757

                     E (Thermal)             CV                S
                      KCal/Mol        Cal/Mol-Kelvin    Cal/Mol-Kelvin
 Total                  108.099             42.873            106.749
 Electronic               0.000              0.000              0.000
 Translational            0.889              2.981             41.552
 Rotational               0.889              2.981             31.126
 Vibrational            106.322             36.912             34.070
 Vibration     1          0.593              1.985              6.340
 Vibration     2          0.597              1.971              4.324
 Vibration     3          0.606              1.944              3.324
 Vibration     4          0.615              1.912              2.790
 Vibration     5          0.634              1.850              2.205
 Vibration     6          0.660              1.770              1.762
 Vibration     7          0.673              1.730              1.603
 Vibration     8          0.675              1.724              1.581
 Vibration     9          0.723              1.586              1.190
 Vibration    10          0.735              1.555              1.122
 Vibration    11          0.782              1.429              0.895
 Vibration    12          0.791              1.406              0.860
 Vibration    13          0.815              1.346              0.776
 Vibration    14          0.856              1.250              0.658
 Vibration    15          0.875              1.206              0.610
 Vibration    16          0.893              1.167              0.570
 Vibration    17          0.912              1.125              0.530
 Vibration    18          0.977              0.995              0.421

 Optimization completed.
    -- Stationary point found.
 Normal termination of Gaussian 16 at Wed Jun 29 11:54:56 2022.
