 Gaussian 16, Revision C.01,
 Gaussian 16:  ES64L-G16RevC.01  3-Jul-2019

 --------------------------------------------------
 #M062X/gen 6D INT(grid=ultrafine) OPT Freq=noraman
 --------------------------------------------------

 ---------
 A.11.freq
 ---------
 Symbolic Z-matrix:
 Charge = -1 Multiplicity = 1

 SCF Done:  E(RM062X) =  -930.035740878     A.U. after   17 cycles
 SCF Done:  E(RM062X) =  -930.037685055     A.U. after   16 cycles
 SCF Done:  E(RM062X) =  -930.038392337     A.U. after   16 cycles
 SCF Done:  E(RM062X) =  -930.038600958     A.U. after   17 cycles
 SCF Done:  E(RM062X) =  -930.038711952     A.U. after   17 cycles
 SCF Done:  E(RM062X) =  -930.038748842     A.U. after   16 cycles
 SCF Done:  E(RM062X) =  -930.038757647     A.U. after   15 cycles
 SCF Done:  E(RM062X) =  -930.038757973     A.U. after   12 cycles
 SCF Done:  E(RM062X) =  -930.038758685     A.U. after   13 cycles
 SCF Done:  E(RM062X) =  -930.038758780     A.U. after   13 cycles
 SCF Done:  E(RM062X) =  -930.038758733     A.U. after   13 cycles
 Optimization completed.
    -- Stationary point found.
 Normal termination of Gaussian 16 at Wed Jun 29 13:37:44 2022.

 ------------------------------------------------------------------
 #N Geom=AllCheck Guess=TCheck SCRF=Check GenChk RM062X/ChkBas Freq
 ------------------------------------------------------------------

 Structure from the checkpoint file:  "/jobfs/48733085.gadi-pbs/Gau-1731492.chk"
 ---------
 A.11.freq
 ---------
 Charge = -1 Multiplicity = 1

                         Standard orientation:
 ---------------------------------------------------------------------
 Center     Atomic      Atomic             Coordinates (Angstroms)
 Number     Number       Type             X           Y           Z
 ---------------------------------------------------------------------
      1          6           0        0.555553   -0.003102   -0.158650
      2          6           0       -0.144138    1.202661   -0.202924
      3          1           0        0.419109    2.131369   -0.170174
      4          6           0       -1.532626    1.197863   -0.304219
      5          1           0       -2.076109    2.142103   -0.347716
      6          6           0       -2.246040   -0.005461   -0.363740
      7          6           0       -3.757422   -0.005654   -0.386937
      8          6           0       -1.530393   -1.205694   -0.333046
      9          1           0       -2.070296   -2.150538   -0.401191
     10          6           0       -0.139166   -1.208114   -0.230586
     11          1           0        0.427262   -2.135578   -0.229464
     12         16           0        2.363425    0.012487    0.079736
     13          8           0        2.769525   -1.301330   -0.483392
     14          8           0        2.776681    1.215702   -0.666739
     15          7           0        2.635703    0.188725    1.611838
     16          1           0        2.589613   -0.747386    2.019850
     17          7           0       -4.397918    0.010727    0.940198
     18          1           0       -4.127046    0.868360   -0.935671
     19          1           0       -4.126138   -0.893000   -0.914458
     20          1           0       -4.063381    0.828450    1.448985
     21          1           0       -4.056567   -0.789696    1.471473
 ---------------------------------------------------------------------

 SCF Done:  E(RM062X) =  -930.038758733     A.U. after    1 cycles

 The electronic state is 1-A.
 Alpha  occ. eigenvalues --  -89.96878 -19.45188 -19.44974 -14.66555 -14.55551
 Alpha  occ. eigenvalues --  -10.48850 -10.45491 -10.45062 -10.44995 -10.44124
 Alpha  occ. eigenvalues --  -10.44059 -10.43975  -8.27721  -6.19947  -6.19889
 Alpha  occ. eigenvalues --   -6.19806  -1.04222  -0.92731  -0.91072  -0.84976
 Alpha  occ. eigenvalues --   -0.79569  -0.74944  -0.73426  -0.66104  -0.58441
 Alpha  occ. eigenvalues --   -0.57229  -0.52017  -0.48537  -0.46841  -0.42393
 Alpha  occ. eigenvalues --   -0.41425  -0.40679  -0.39531  -0.38491  -0.37861
 Alpha  occ. eigenvalues --   -0.35198  -0.33996  -0.33597  -0.31731  -0.28864
 Alpha  occ. eigenvalues --   -0.25471  -0.23472  -0.22122  -0.20933  -0.19789
 Alpha  occ. eigenvalues --   -0.19753  -0.17881  -0.15860  -0.12703
 Alpha virt. eigenvalues --    0.09401   0.11191   0.11615   0.12119   0.12622
 Alpha virt. eigenvalues --    0.12852   0.14677   0.15161   0.16814   0.17133
 Alpha virt. eigenvalues --    0.18172   0.18543   0.19081   0.20205   0.20381

 Mulliken charges:
               1
     1  C   -1.299311
     2  C   -0.232485
     3  H    0.237491
     4  C   -0.189252
     5  H    0.177400
     6  C   -0.156919
     7  C   -0.112823
     8  C   -0.301769
     9  H    0.176159
    10  C    0.446953
    11  H    0.235478
    12  S    1.418217
    13  O   -0.650598
    14  O   -0.607506
    15  N   -0.811122
    16  H    0.334131
    17  N   -0.866940
    18  H    0.206215
    19  H    0.204142
    20  H    0.396827
    21  H    0.395712
 Sum of Mulliken charges =  -1.00000

 Dipole moment (field-independent basis, Debye):
    X=            -10.2928    Y=             -1.2866    Z=             -0.0296  Tot=             10.3729
 Quadrupole moment (field-independent basis, Debye-Ang):
   XX=           -139.5076   YY=            -83.7797   ZZ=            -89.9994
   XY=             -3.8448   XZ=              0.8932   YZ=             -3.4640

  Exact polarizability:     176.223       0.207     123.370       7.288       0.700      97.609
 Approx polarizability:     182.294       0.948     171.939       7.708       1.135     123.739

                      1                      2                      3
                      A                      A                      A
 Frequencies --     19.8327                46.0440                64.3636
 Red. masses --      5.2022                 2.8494                 5.8344
 Frc consts  --      0.0012                 0.0036                 0.0142
 IR Inten    --      0.6524                 0.0615                 2.8444

                      4                      5                      6
                      A                      A                      A
 Frequencies --    155.3065               161.8705               241.2007
 Red. masses --      5.3281                 4.7732                 5.4324
 Frc consts  --      0.0757                 0.0737                 0.1862
 IR Inten    --      1.8256                 5.1552                 0.6853

                      7                      8                      9
                      A                      A                      A
 Frequencies --    263.9821               297.7151               322.6964
 Red. masses --      1.6119                 3.6333                 2.6201
 Frc consts  --      0.0662                 0.1897                 0.1607
 IR Inten    --     33.4126                16.8798                22.6158

                     10                     11                     12
                      A                      A                      A
 Frequencies --    369.4850               408.3210               413.4358
 Red. masses --      1.7210                 3.9727                 3.2594
 Frc consts  --      0.1384                 0.3902                 0.3283
 IR Inten    --     26.4691                 3.7671                 1.3492

                     13                     14                     15
                      A                      A                      A
 Frequencies --    449.4436               492.8580               504.4772
 Red. masses --      2.0836                 4.1347                 5.6110
 Frc consts  --      0.2480                 0.5918                 0.8413
 IR Inten    --     47.9188                17.6564                23.3926

                     16                     17                     18
                      A                      A                      A
 Frequencies --    562.5360               585.4115               646.4947
 Red. masses --      4.4733                 4.6710                 6.8307
 Frc consts  --      0.8340                 0.9432                 1.6821
 IR Inten    --     43.8400               118.7957                 0.0934

                     19                     20                     21
                      A                      A                      A
 Frequencies --    663.4945               747.2922               814.7612
 Red. masses --      5.4311                 4.0945                 3.7319
 Frc consts  --      1.4087                 1.3472                 1.4596
 IR Inten    --     95.8617                 1.2619                43.0891

                     22                     23                     24
                      A                      A                      A
 Frequencies --    860.7606               863.6435               885.4438
 Red. masses --      1.5580                 1.3229                 1.3074
 Frc consts  --      0.6801                 0.5813                 0.6039
 IR Inten    --      7.3401                 2.8747                 1.8895

                     25                     26                     27
                      A                      A                      A
 Frequencies --    957.2592               982.6965               983.4017
 Red. masses --      9.6610                 1.4207                 2.0301
 Frc consts  --      5.2159                 0.8083                 1.1567
 IR Inten    --    314.2123                15.1825               158.9056

                     28                     29                     30
                      A                      A                      A
 Frequencies --    997.9067              1039.0403              1111.2695
 Red. masses --      1.3635                 3.1785                 2.4862
 Frc consts  --      0.8000                 2.0218                 1.8090
 IR Inten    --      0.2439                 5.6239                23.2203

                     31                     32                     33
                      A                      A                      A
 Frequencies --   1113.5251              1118.4409              1133.7841
 Red. masses --      2.4245                 1.4813                 2.0773
 Frc consts  --      1.7712                 1.0917                 1.5733
 IR Inten    --    201.3539                51.8391                30.3121

                     34                     35                     36
                      A                      A                      A
 Frequencies --   1147.6083              1157.7421              1198.4864
 Red. masses --      3.2107                 1.1805                 1.1507
 Frc consts  --      2.4914                 0.9323                 0.9738
 IR Inten    --    142.8860                 2.8491                 0.9319

                     37                     38                     39
                      A                      A                      A
 Frequencies --   1243.6678              1265.0137              1321.3225
 Red. masses --      2.6372                 5.7603                 1.3566
 Frc consts  --      2.4033                 5.4311                 1.3955
 IR Inten    --     11.5219               218.6170                 0.2791

                     40                     41                     42
                      A                      A                      A
 Frequencies --   1347.4225              1378.5044              1397.3570
 Red. masses --      5.4441                 1.3735                 1.2523
 Frc consts  --      5.8235                 1.5378                 1.4406
 IR Inten    --      4.1806                40.4821                 0.3972

                     43                     44                     45
                      A                      A                      A
 Frequencies --   1451.0624              1506.8878              1543.8769
 Red. masses --      2.7178                 1.0960                 2.6095
 Frc consts  --      3.3716                 1.4663                 3.6646
 IR Inten    --      9.3783                 1.8173                 3.1419

                     46                     47                     48
                      A                      A                      A
 Frequencies --   1653.4547              1679.1768              1707.9488
 Red. masses --      7.2027                 6.1468                 1.0857
 Frc consts  --     11.6019                10.2116                 1.8660
 IR Inten    --      1.7665                 7.6553                28.7831

                     49                     50                     51
                      A                      A                      A
 Frequencies --   3075.6983              3118.1291              3172.6951
 Red. masses --      1.0598                 1.1057                 1.0891
 Frc consts  --      5.9068                 6.3340                 6.4589
 IR Inten    --     57.7204                26.0440                42.5225

                     52                     53                     54
                      A                      A                      A
 Frequencies --   3173.9648              3230.7201              3232.7695
 Red. masses --      1.0888                 1.0917                 1.0924
 Frc consts  --      6.4626                 6.7138                 6.7263
 IR Inten    --     27.7415                 5.3980                 3.8610

                     55                     56                     57
                      A                      A                      A
 Frequencies --   3495.4849              3503.2695              3577.3104
 Red. masses --      1.0505                 1.0731                 1.0916
 Frc consts  --      7.5621                 7.7593                 8.2302
 IR Inten    --      0.5718                 5.0748                 1.0725

 - Thermochemistry -
 -------------------
 Temperature   298.150 Kelvin.  Pressure   1.00000 Atm.
 Atom     1 has atomic number  6 and mass  12.00000

 Molecular mass:   185.03847 amu.
 Principal axes and moments of inertia in atomic units:
                           1         2         3
     Eigenvalues --   786.397964436.970074669.68161
           X            1.00000  -0.00185   0.00204
           Y            0.00189   0.99982  -0.01881
           Z           -0.00201   0.01882   0.99982
 This molecule is an asymmetric top.
 Rotational symmetry number  1.
 Warning -- assumption of classical behavior for rotation
           may cause significant error
 Rotational temperatures (Kelvin)      0.11014     0.01952     0.01855
 Rotational constants (GHZ):           2.29495     0.40675     0.38648
 Zero-point vibrational energy     423823.6 (Joules/Mol)
                                  101.29627 (Kcal/Mol)
 Warning -- explicit consideration of  17 degrees of freedom as
           vibrations may cause significant error
 Vibrational temperatures:     28.53    66.25    92.60   223.45   232.90
          (Kelvin)            347.03   379.81   428.35   464.29   531.61
                              587.48   594.84   646.65   709.11   725.83
                              809.36   842.28   930.16   954.62  1075.19
                             1172.26  1238.44  1242.59  1273.96  1377.28
                             1413.88  1414.90  1435.77  1494.95  1598.87
                             1602.11  1609.19  1631.26  1651.15  1665.73
                             1724.35  1789.36  1820.07  1901.09  1938.64
                             1983.36  2010.49  2087.76  2168.08  2221.29
                             2378.95  2415.96  2457.36  4425.24  4486.29
                             4564.80  4566.63  4648.29  4651.23  5029.22
                             5040.42  5146.95

 Zero-point correction=                           0.161426 (Hartree/Particle)
 Thermal correction to Energy=                    0.172888
 Thermal correction to Enthalpy=                  0.173832
 Thermal correction to Gibbs Free Energy=         0.122178
 Sum of electronic and zero-point Energies=           -929.877333
 Sum of electronic and thermal Energies=              -929.865871
 Sum of electronic and thermal Enthalpies=            -929.864927
 Sum of electronic and thermal Free Energies=         -929.916581

                     E (Thermal)             CV                S
                      KCal/Mol        Cal/Mol-Kelvin    Cal/Mol-Kelvin
 Total                  108.489             42.657            108.716
 Electronic               0.000              0.000              0.000
 Translational            0.889              2.981             41.552
 Rotational               0.889              2.981             31.166
 Vibrational            106.711             36.696             35.997
 Vibration     1          0.593              1.986              6.651
 Vibration     2          0.595              1.979              4.980
 Vibration     3          0.597              1.971              4.319
 Vibration     4          0.620              1.897              2.606
 Vibration     5          0.622              1.889              2.528
 Vibration     6          0.658              1.777              1.794
 Vibration     7          0.671              1.739              1.635
 Vibration     8          0.691              1.678              1.430
 Vibration     9          0.708              1.630              1.296
 Vibration    10          0.742              1.535              1.082
 Vibration    11          0.773              1.452              0.933
 Vibration    12          0.777              1.441              0.915
 Vibration    13          0.808              1.362              0.797
 Vibration    14          0.849              1.266              0.676
 Vibration    15          0.860              1.240              0.647
 Vibration    16          0.918              1.112              0.519
 Vibration    17          0.942              1.063              0.475

                           ! Non-Optimized Parameters !
 Normal termination of Gaussian 16 at Wed Jun 29 13:41:25 2022.
