 Gaussian 16, Revision C.01,
 Gaussian 16:  ES64L-G16RevC.01  3-Jul-2019

 --------------------------------------------------
 #M062X/gen 6D INT(grid=ultrafine) OPT Freq=noraman
 --------------------------------------------------

 ---------
 A.12.freq
 ---------
 Symbolic Z-matrix:
 Charge = -1 Multiplicity = 1

 SCF Done:  E(RM062X) =  -988.009729819     A.U. after   17 cycles
 SCF Done:  E(RM062X) =  -988.011922098     A.U. after   16 cycles
 SCF Done:  E(RM062X) =  -988.012650936     A.U. after   17 cycles
 SCF Done:  E(RM062X) =  -988.012870755     A.U. after   17 cycles
 SCF Done:  E(RM062X) =  -988.012978570     A.U. after   17 cycles
 SCF Done:  E(RM062X) =  -988.012999186     A.U. after   16 cycles
 SCF Done:  E(RM062X) =  -988.013022481     A.U. after   15 cycles
 SCF Done:  E(RM062X) =  -988.013024792     A.U. after   12 cycles
 SCF Done:  E(RM062X) =  -988.013024962     A.U. after   13 cycles
 SCF Done:  E(RM062X) =  -988.013025082     A.U. after   13 cycles
 SCF Done:  E(RM062X) =  -988.013025152     A.U. after   13 cycles
 SCF Done:  E(RM062X) =  -988.013025191     A.U. after   13 cycles
 Optimization completed.
    -- Stationary point found.
 Normal termination of Gaussian 16 at Wed Jun 29 13:43:45 2022.

 ------------------------------------------------------------------
 #N Geom=AllCheck Guess=TCheck SCRF=Check GenChk RM062X/ChkBas Freq
 ------------------------------------------------------------------

 Structure from the checkpoint file:  "/jobfs/48735353.gadi-pbs/Gau-2685297.chk"
 ---------
 A.12.freq
 ---------
 Charge = -1 Multiplicity = 1

                         Standard orientation:
 ---------------------------------------------------------------------
 Center     Atomic      Atomic             Coordinates (Angstroms)
 Number     Number       Type             X           Y           Z
 ---------------------------------------------------------------------
      1          6           0        0.826203   -0.015828   -0.077406
      2          6           0        0.156339   -1.241395   -0.072128
      3          1           0        0.743642   -2.154445   -0.116134
      4          6           0       -1.232236   -1.275297   -0.039761
      5          1           0       -1.771262   -2.218523   -0.042923
      6          6           0       -1.971644   -0.084614   -0.008543
      7          6           0       -3.456534   -0.160188    0.025009
      8          6           0       -1.288613    1.141366   -0.020040
      9          1           0       -1.841188    2.077430   -0.005675
     10          6           0        0.100340    1.175442   -0.055587
     11          1           0        0.644342    2.115355   -0.076995
     12         16           0        2.647974    0.044334   -0.010330
     13          8           0        3.033200   -1.239224   -0.647705
     14          8           0        2.953379    1.279810   -0.754008
     15          7           0        3.042381    0.185543    1.497034
     16          1           0        3.076925   -0.762863    1.876401
     17          8           0       -4.049145   -1.227246    0.030120
     18          6           0       -4.248502    1.136860    0.054784
     19          1           0       -4.031137    1.744333   -0.829982
     20          1           0       -3.985442    1.731725    0.935691
     21          1           0       -5.311720    0.894046    0.080436
 ---------------------------------------------------------------------

 SCF Done:  E(RM062X) =  -988.013025191     A.U. after    2 cycles

 The electronic state is 1-A.
 Alpha  occ. eigenvalues --  -89.97707 -19.54895 -19.45991 -19.45795 -14.56424
 Alpha  occ. eigenvalues --  -10.55537 -10.47136 -10.46537 -10.46272 -10.45842
 Alpha  occ. eigenvalues --  -10.45453 -10.44888 -10.44851  -8.28547  -6.20772
 Alpha  occ. eigenvalues --   -6.20717  -6.20632  -1.07697  -1.05117  -0.93601
 Alpha  occ. eigenvalues --   -0.86463  -0.80510  -0.77816  -0.74557  -0.73434
 Alpha  occ. eigenvalues --   -0.62488  -0.58911  -0.54140  -0.52742  -0.48195
 Alpha  occ. eigenvalues --   -0.44091  -0.43871  -0.43437  -0.41736  -0.40048
 Alpha  occ. eigenvalues --   -0.39409  -0.38935  -0.37688  -0.35864  -0.35437
 Alpha  occ. eigenvalues --   -0.34141  -0.32567  -0.29849  -0.26297  -0.23702
 Alpha  occ. eigenvalues --   -0.23070  -0.22010  -0.20995  -0.20681  -0.18961
 Alpha  occ. eigenvalues --   -0.16632  -0.13608
 Alpha virt. eigenvalues --    0.06900   0.08881   0.11772   0.11980   0.12244
 Alpha virt. eigenvalues --    0.13677   0.13861   0.14836   0.15466   0.15753
 Alpha virt. eigenvalues --    0.16982   0.17459   0.17726   0.17921   0.19290

 Mulliken charges:
               1
     1  C   -1.283356
     2  C    0.191269
     3  H    0.239154
     4  C    0.312439
     5  H    0.226258
     6  C    0.455105
     7  C    0.670797
     8  C   -0.417632
     9  H    0.183107
    10  C   -0.910793
    11  H    0.242276
    12  S    1.444669
    13  O   -0.635280
    14  O   -0.605085
    15  N   -0.804635
    16  H    0.338656
    17  O   -0.460839
    18  C   -0.883216
    19  H    0.231608
    20  H    0.232029
    21  H    0.233471
 Sum of Mulliken charges =  -1.00000

 Dipole moment (field-independent basis, Debye):
    X=            -10.2888    Y=              0.9343    Z=              0.3552  Tot=             10.3372
 Quadrupole moment (field-independent basis, Debye-Ang):
   XX=           -146.5332   YY=            -91.4251   ZZ=            -94.8596
   XY=            -16.2719   XZ=              1.2336   YZ=             -3.2058

  Exact polarizability:     202.494       2.543     130.523       6.387       0.575      92.208
 Approx polarizability:     211.047       9.831     182.247       5.509       0.948     120.728

                      1                      2                      3
                      A                      A                      A
 Frequencies --     21.6720                59.2971                70.1389
 Red. masses --      5.7756                 4.0292                 6.7064
 Frc consts  --      0.0016                 0.0083                 0.0194
 IR Inten    --      2.9168                 0.1004                 6.0749

                      4                      5                      6
                      A                      A                      A
 Frequencies --    133.4646               169.8350               186.1559
 Red. masses --      7.0621                 6.1378                 1.0345
 Frc consts  --      0.0741                 0.1043                 0.0211
 IR Inten    --      7.1470                 0.3351                 0.0879

                      7                      8                      9
                      A                      A                      A
 Frequencies --    236.1087               237.5328               305.4149
 Red. masses --      5.0247                10.1372                 4.1660
 Frc consts  --      0.1650                 0.3370                 0.2290
 IR Inten    --      0.3060                 4.2165                 5.4940

                     10                     11                     12
                      A                      A                      A
 Frequencies --    334.7493               411.2191               414.1571
 Red. masses --      3.3406                 3.0215                 3.1736
 Frc consts  --      0.2206                 0.3010                 0.3207
 IR Inten    --     34.9043                 4.0888                12.3828

                     13                     14                     15
                      A                      A                      A
 Frequencies --    445.3023               464.8687               488.8053
 Red. masses --      2.5626                 3.6914                 3.8658
 Frc consts  --      0.2994                 0.4700                 0.5442
 IR Inten    --     12.1713                11.0954                70.1876

                     16                     17                     18
                      A                      A                      A
 Frequencies --    506.6302               540.3627               594.8870
 Red. masses --      4.2299                 5.4286                 6.7172
 Frc consts  --      0.6397                 0.9339                 1.4006
 IR Inten    --     14.9862                26.5716                34.5075

                     19                     20                     21
                      A                      A                      A
 Frequencies --    604.3982               639.9415               642.7580
 Red. masses --      2.3955                 6.5066                 6.0495
 Frc consts  --      0.5156                 1.5699                 1.4725
 IR Inten    --     26.5415                49.6783               118.4389

                     22                     23                     24
                      A                      A                      A
 Frequencies --    739.6409               781.3377               851.4533
 Red. masses --      3.9401                 5.8633                 1.4196
 Frc consts  --      1.2700                 2.1090                 0.6063
 IR Inten    --      2.7887                 7.9265                19.6022

                     25                     26                     27
                      A                      A                      A
 Frequencies --    876.7563               956.7094               974.2802
 Red. masses --      1.3123                 9.5589                 2.2342
 Frc consts  --      0.5943                 5.1549                 1.2495
 IR Inten    --      9.4970               274.2572                 8.7857

                     28                     29                     30
                      A                      A                      A
 Frequencies --    991.9470              1015.4612              1035.7518
 Red. masses --      1.3288                 1.3526                 3.3693
 Frc consts  --      0.7704                 0.8218                 2.1296
 IR Inten    --      0.8467                 0.6313                 3.3580

                     31                     32                     33
                      A                      A                      A
 Frequencies --   1049.4757              1101.3222              1112.7446
 Red. masses --      1.8697                 2.7433                 2.5391
 Frc consts  --      1.2133                 1.9605                 1.8523
 IR Inten    --      0.6704                 3.1798               208.1873

                     34                     35                     36
                      A                      A                      A
 Frequencies --   1130.9917              1134.2918              1151.4245
 Red. masses --      1.6710                 1.4363                 3.7629
 Frc consts  --      1.2594                 1.0888                 2.9393
 IR Inten    --     15.5462                24.3185               168.7472

                     37                     38                     39
                      A                      A                      A
 Frequencies --   1202.9333              1268.7189              1309.1619
 Red. masses --      1.1717                 6.0663                 3.2060
 Frc consts  --      0.9990                 5.7532                 3.2375
 IR Inten    --     21.6517               226.9017               246.4000

                     40                     41                     42
                      A                      A                      A
 Frequencies --   1322.5705              1354.8514              1402.4156
 Red. masses --      1.2937                 8.4319                 1.4665
 Frc consts  --      1.3332                 9.1193                 1.6993
 IR Inten    --      3.0014                10.6745                71.0697

                     43                     44                     45
                      A                      A                      A
 Frequencies --   1446.9012              1498.1381              1502.9315
 Red. masses --      3.1372                 1.0554                 1.0478
 Frc consts  --      3.8696                 1.3957                 1.3944
 IR Inten    --     39.6272                10.5837                10.1770

                     46                     47                     48
                      A                      A                      A
 Frequencies --   1541.3229              1642.4046              1668.6904
 Red. masses --      2.5313                 7.4730                 5.9490
 Frc consts  --      3.5431                11.8769                 9.7599
 IR Inten    --      7.3337                22.1307               155.8254

                     49                     50                     51
                      A                      A                      A
 Frequencies --   1803.8871              3085.7884              3154.4850
 Red. masses --     11.1544                 1.0365                 1.1003
 Frc consts  --     21.3853                 5.8152                 6.4508
 IR Inten    --    326.2842                 3.6937                 8.1666

                     52                     53                     54
                      A                      A                      A
 Frequencies --   3194.3407              3214.6919              3226.1992
 Red. masses --      1.1031                 1.0880                 1.0875
 Frc consts  --      6.6316                 6.6243                 6.6689
 IR Inten    --     21.2134                14.2700                 0.8542

                     55                     56                     57
                      A                      A                      A
 Frequencies --   3239.0149              3240.3642              3507.1586
 Red. masses --      1.0935                 1.0945                 1.0732
 Frc consts  --      6.7591                 6.7708                 7.7773
 IR Inten    --      8.1438                 3.2721                 6.1060

 - Thermochemistry -
 -------------------
 Temperature   298.150 Kelvin.  Pressure   1.00000 Atm.
 Atom     1 has atomic number  6 and mass  12.00000

 Molecular mass:   198.02249 amu.
 Principal axes and moments of inertia in atomic units:
                           1         2         3
     Eigenvalues --   855.803705307.197805787.63891
           X            0.99985  -0.01697   0.00354
           Y            0.01699   0.99983  -0.00782
           Z           -0.00341   0.00788   0.99996
 This molecule is an asymmetric top.
 Rotational symmetry number  1.
 Warning -- assumption of classical behavior for rotation
           may cause significant error
 Rotational temperatures (Kelvin)      0.10121     0.01632     0.01497
 Rotational constants (GHZ):           2.10883     0.34006     0.31183
 Zero-point vibrational energy     402174.1 (Joules/Mol)
                                   96.12192 (Kcal/Mol)
 Warning -- explicit consideration of  19 degrees of freedom as
           vibrations may cause significant error
 Vibrational temperatures:     31.18    85.32   100.91   192.03   244.35
          (Kelvin)            267.84   339.71   341.76   439.42   481.63
                              591.65   595.88   640.69   668.84   703.28
                              728.93   777.46   855.91   869.59   920.73
                              924.79  1064.18  1124.17  1225.05  1261.46
                             1376.49  1401.77  1427.19  1461.02  1490.22
                             1509.96  1584.56  1600.99  1627.24  1631.99
                             1656.64  1730.75  1825.40  1883.59  1902.88
                             1949.33  2017.76  2081.77  2155.49  2162.38
                             2217.62  2363.05  2400.87  2595.39  4439.76
                             4538.60  4595.94  4625.22  4641.78  4660.22
                             4662.16  5046.02

 Zero-point correction=                           0.153180 (Hartree/Particle)
 Thermal correction to Energy=                    0.165274
 Thermal correction to Enthalpy=                  0.166218
 Thermal correction to Gibbs Free Energy=         0.113380
 Sum of electronic and zero-point Energies=           -987.859845
 Sum of electronic and thermal Energies=              -987.847751
 Sum of electronic and thermal Enthalpies=            -987.846807
 Sum of electronic and thermal Free Energies=         -987.899645

                     E (Thermal)             CV                S
                      KCal/Mol        Cal/Mol-Kelvin    Cal/Mol-Kelvin
 Total                  103.711             44.969            111.207
 Electronic               0.000              0.000              0.000
 Translational            0.889              2.981             41.755
 Rotational               0.889              2.981             31.642
 Vibrational            101.934             39.007             37.810
 Vibration     1          0.593              1.985              6.475
 Vibration     2          0.597              1.974              4.480
 Vibration     3          0.598              1.968              4.149
 Vibration     4          0.613              1.920              2.896
 Vibration     5          0.625              1.880              2.437
 Vibration     6          0.632              1.859              2.266
 Vibration     7          0.655              1.785              1.832
 Vibration     8          0.656              1.783              1.821
 Vibration     9          0.696              1.663              1.387
 Vibration    10          0.716              1.606              1.237
 Vibration    11          0.775              1.446              0.922
 Vibration    12          0.778              1.439              0.912
 Vibration    13          0.805              1.371              0.810
 Vibration    14          0.822              1.328              0.752
 Vibration    15          0.845              1.275              0.687
 Vibration    16          0.862              1.235              0.642
 Vibration    17          0.895              1.161              0.565
 Vibration    18          0.953              1.043              0.459
 Vibration    19          0.963              1.022              0.442

 Optimization completed.
    -- Stationary point found.
 Normal termination of Gaussian 16 at Wed Jun 29 13:47:49 2022.
