 Gaussian 16, Revision C.01,
 Gaussian 16:  ES64L-G16RevC.01  3-Jul-2019

 --------------------------------------------------
 #M062X/gen 6D INT(grid=ultrafine) OPT Freq=noraman
 --------------------------------------------------

 ----------------
 A.13.a1b3d3.freq
 ----------------
 Symbolic Z-matrix:
 Charge = -1 Multiplicity = 1

 SCF Done:  E(RM062X) =  -1063.21943935     A.U. after   17 cycles
 SCF Done:  E(RM062X) =  -1063.22176302     A.U. after   15 cycles
 SCF Done:  E(RM062X) =  -1063.22256584     A.U. after   17 cycles
 SCF Done:  E(RM062X) =  -1063.22280711     A.U. after   16 cycles
 SCF Done:  E(RM062X) =  -1063.22290144     A.U. after   16 cycles
 SCF Done:  E(RM062X) =  -1063.22292695     A.U. after   16 cycles
 SCF Done:  E(RM062X) =  -1063.22295487     A.U. after   16 cycles
 SCF Done:  E(RM062X) =  -1063.22296026     A.U. after   16 cycles
 SCF Done:  E(RM062X) =  -1063.22296063     A.U. after   13 cycles
 SCF Done:  E(RM062X) =  -1063.22296066     A.U. after   12 cycles
 Optimization completed.
    -- Stationary point found.
 Normal termination of Gaussian 16 at Sun May 22 15:40:28 2022.

 ------------------------------------------------------------------
 #N Geom=AllCheck Guess=TCheck SCRF=Check GenChk RM062X/ChkBas Freq
 ------------------------------------------------------------------

 Structure from the checkpoint file:  "/jobfs/40918521.gadi-pbs/Gau-903447.chk"
 ----------------
 A.13.a1b3d3.freq
 ----------------
 Charge = -1 Multiplicity = 1

                         Standard orientation:
 ---------------------------------------------------------------------
 Center     Atomic      Atomic             Coordinates (Angstroms)
 Number     Number       Type             X           Y           Z
 ---------------------------------------------------------------------
      1          6           0       -1.222705    0.025513   -0.076583
      2          6           0       -0.449523   -1.137133   -0.061181
      3          1           0       -0.956584   -2.097453   -0.083531
      4          6           0        0.936631   -1.052268   -0.029632
      5          1           0        1.543747   -1.951945   -0.019753
      6          6           0        1.560294    0.203417   -0.016567
      7          6           0        3.032382    0.349529    0.010783
      8          6           0        0.782430    1.366573   -0.040875
      9          1           0        1.283448    2.330529   -0.042458
     10          6           0       -0.604726    1.276728   -0.068945
     11          1           0       -1.228591    2.165201   -0.107848
     12         16           0       -3.041039   -0.106435   -0.007186
     13          8           0       -3.476943    1.179326   -0.607279
     14          8           0       -3.301885   -1.330744   -0.785339
     15          7           0       -3.426404   -0.305173    1.496024
     16          1           0       -3.492943    0.630033    1.902910
     17          8           0        3.681720   -0.839423    0.023122
     18          8           0        3.637959    1.401671    0.022049
     19          6           0        5.099168   -0.750087    0.050088
     20          1           0        5.460138   -1.778650    0.057009
     21          1           0        5.433974   -0.219393    0.945365
     22          1           0        5.467756   -0.219435   -0.831832
 ---------------------------------------------------------------------

 SCF Done:  E(RM062X) =  -1063.22296066     A.U. after    2 cycles

 The electronic state is 1-A.
 Alpha  occ. eigenvalues --  -89.97548 -19.61011 -19.55061 -19.45841 -19.45629
 Alpha  occ. eigenvalues --  -14.56261 -10.59875 -10.53018 -10.46694 -10.46074
 Alpha  occ. eigenvalues --  -10.45962 -10.45285 -10.44715 -10.44650  -8.28388
 Alpha  occ. eigenvalues --   -6.20613  -6.20559  -6.20474  -1.15421  -1.05558
 Alpha  occ. eigenvalues --   -1.04952  -0.93436  -0.86503  -0.80371  -0.77795
 Alpha  occ. eigenvalues --   -0.74382  -0.72971  -0.62732  -0.59045  -0.56673
 Alpha  occ. eigenvalues --   -0.52650  -0.52049  -0.48923  -0.47745  -0.45110
 Alpha  occ. eigenvalues --   -0.42378  -0.41633  -0.40400  -0.39595  -0.39157
 Alpha  occ. eigenvalues --   -0.38742  -0.35765  -0.35523  -0.34024  -0.33037
 Alpha  occ. eigenvalues --   -0.29756  -0.29559  -0.26977  -0.26135  -0.22917
 Alpha  occ. eigenvalues --   -0.21979  -0.20781  -0.20519  -0.18835  -0.16482
 Alpha  occ. eigenvalues --   -0.13466
 Alpha virt. eigenvalues --    0.07959   0.08487   0.10605   0.11857   0.11908
 Alpha virt. eigenvalues --    0.12628   0.13244   0.14167   0.15178   0.15827
 Alpha virt. eigenvalues --    0.17009   0.17122   0.17714   0.18466   0.18653

 Mulliken charges:
               1
     1  C   -1.441469
     2  C   -0.346317
     3  H    0.241957
     4  C   -0.096236
     5  H    0.217699
     6  C   -0.236230
     7  C    0.905895
     8  C   -0.231689
     9  H    0.223140
    10  C    0.319672
    11  H    0.240355
    12  S    1.480333
    13  O   -0.636122
    14  O   -0.595794
    15  N   -0.802338
    16  H    0.338084
    17  O   -0.340597
    18  O   -0.520104
    19  C   -0.351708
    20  H    0.200362
    21  H    0.215586
    22  H    0.215521
 Sum of Mulliken charges =  -1.00000

 Dipole moment (field-independent basis, Debye):
    X=             13.2951    Y=              0.0786    Z=              0.3880  Tot=             13.3010
 Quadrupole moment (field-independent basis, Debye-Ang):
   XX=           -149.3056   YY=            -98.8014   ZZ=            -99.8320
   XY=            -15.6247   XZ=             -1.4358   YZ=              3.1969

  Exact polarizability:     208.291       2.183     132.403      -6.415      -0.808      94.773
 Approx polarizability:     209.524       6.267     185.847      -5.349      -1.017     122.950

                      1                      2                      3
                      A                      A                      A
 Frequencies --     24.1389                51.5884                69.4444
 Red. masses --      6.7327                 4.8228                 5.5374
 Frc consts  --      0.0023                 0.0076                 0.0157
 IR Inten    --      1.6052                 0.4431                 2.0346

                      4                      5                      6
                      A                      A                      A
 Frequencies --    112.8099               125.2671               174.3272
 Red. masses --      6.1348                 3.5184                 1.2324
 Frc consts  --      0.0460                 0.0325                 0.0221
 IR Inten    --      2.5914                 3.3202                 0.0389

                      7                      8                      9
                      A                      A                      A
 Frequencies --    196.9180               201.8051               228.2220
 Red. masses --      4.2469                 5.6555                10.7190
 Frc consts  --      0.0970                 0.1357                 0.3289
 IR Inten    --      3.0187                 3.3965                 4.6132

                     10                     11                     12
                      A                      A                      A
 Frequencies --    314.5532               327.7252               354.8860
 Red. masses --      3.4924                 6.2044                 3.6425
 Frc consts  --      0.2036                 0.3926                 0.2703
 IR Inten    --      8.5190                 4.5244                40.6695

                     13                     14                     15
                      A                      A                      A
 Frequencies --    412.6450               431.6818               449.5421
 Red. masses --      2.9429                 4.4134                 2.8866
 Frc consts  --      0.2952                 0.4846                 0.3437
 IR Inten    --      0.1847                20.5492                 7.9212

                     16                     17                     18
                      A                      A                      A
 Frequencies --    471.7678               495.0874               513.3622
 Red. masses --      4.2888                 3.2030                 4.7564
 Frc consts  --      0.5624                 0.4626                 0.7385
 IR Inten    --      7.4689                73.8485                13.3499

                     19                     20                     21
                      A                      A                      A
 Frequencies --    547.6876               611.1696               640.6723
 Red. masses --      4.8570                13.8212                 7.0606
 Frc consts  --      0.8584                 3.0417                 1.7075
 IR Inten    --     37.9163               144.0066                 1.3798

                     22                     23                     24
                      A                      A                      A
 Frequencies --    715.4621               737.9779               785.1926
 Red. masses --      3.9717                 6.8632                 4.3369
 Frc consts  --      1.1978                 2.2022                 1.5754
 IR Inten    --     26.0397                50.7837                22.2889

                     25                     26                     27
                      A                      A                      A
 Frequencies --    848.5109               871.0280               882.0770
 Red. masses --      5.3178                 1.3891                 1.5785
 Frc consts  --      2.2558                 0.6209                 0.7236
 IR Inten    --      4.1791                 3.4239                10.0386

                     28                     29                     30
                      A                      A                      A
 Frequencies --    959.9771              1002.1945              1014.3570
 Red. masses --     13.8031                 1.3215                 1.3608
 Frc consts  --      7.4946                 0.7820                 0.8249
 IR Inten    --    264.3363                 1.0871                 0.2899

                     31                     32                     33
                      A                      A                      A
 Frequencies --   1031.1716              1054.0130              1114.4720
 Red. masses --      4.9958                 3.4220                 3.0395
 Frc consts  --      3.1298                 2.2399                 2.2243
 IR Inten    --     10.4554                 7.6624               197.3348

                     34                     35                     36
                      A                      A                      A
 Frequencies --   1129.4165              1132.5961              1151.5891
 Red. masses --      1.3523                 1.9040                 3.5217
 Frc consts  --      1.0164                 1.4390                 2.7517
 IR Inten    --     23.6020                50.8084               172.6332

                     37                     38                     39
                      A                      A                      A
 Frequencies --   1175.4008              1191.4108              1201.1673
 Red. masses --      2.9967                 1.2840                 1.2324
 Frc consts  --      2.4393                 1.0738                 1.0476
 IR Inten    --     50.9588                 1.4021                50.8752

                     40                     41                     42
                      A                      A                      A
 Frequencies --   1236.1925              1268.9431              1321.9458
 Red. masses --      1.7474                 5.8324                 1.3384
 Frc consts  --      1.5733                 5.5333                 1.3780
 IR Inten    --     53.8318               224.1223                23.5637

                     43                     44                     45
                      A                      A                      A
 Frequencies --   1330.0922              1359.9205              1447.0076
 Red. masses --      4.6169                 9.1435                 3.1809
 Frc consts  --      4.8125                 9.9630                 3.9242
 IR Inten    --    650.4476                58.7751                26.3033

                     46                     47                     48
                      A                      A                      A
 Frequencies --   1492.3458              1510.2203              1525.3606
 Red. masses --      1.2231                 1.0453                 1.0474
 Frc consts  --      1.6049                 1.4046                 1.4359
 IR Inten    --     35.5320                 6.1728                11.8566

                     49                     50                     51
                      A                      A                      A
 Frequencies --   1542.1730              1647.8827              1672.2966
 Red. masses --      2.5731                 7.7496                 5.9703
 Frc consts  --      3.6056                12.3989                 9.8372
 IR Inten    --      7.6419                 8.1796               123.8120

                     52                     53                     54
                      A                      A                      A
 Frequencies --   1821.5277              3093.6263              3165.8497
 Red. masses --     11.9056                 1.0303                 1.1063
 Frc consts  --     23.2742                 5.8095                 6.5327
 IR Inten    --    419.7474                57.4752                25.1532

                     55                     56                     57
                      A                      A                      A
 Frequencies --   3199.0279              3226.9460              3232.5905
 Red. masses --      1.1059                 1.0879                 1.0879
 Frc consts  --      6.6679                 6.6743                 6.6981
 IR Inten    --     23.0271                 0.8908                 0.8064

                     58                     59                     60
                      A                      A                      A
 Frequencies --   3240.7811              3246.4162              3508.7329
 Red. masses --      1.0944                 1.0949                 1.0732
 Frc consts  --      6.7724                 6.7987                 7.7843
 IR Inten    --      6.3953                 7.2894                 5.9360

 - Thermochemistry -
 -------------------
 Temperature   298.150 Kelvin.  Pressure   1.00000 Atm.
 Atom     1 has atomic number  6 and mass  12.00000

 Molecular mass:   214.01740 amu.
 Principal axes and moments of inertia in atomic units:
                           1         2         3
     Eigenvalues --   889.363846824.936457338.67305
           X            0.99996  -0.00895  -0.00306
           Y            0.00897   0.99994   0.00685
           Z            0.00300  -0.00687   0.99997
 This molecule is an asymmetric top.
 Rotational symmetry number  1.
 Warning -- assumption of classical behavior for rotation
           may cause significant error
 Rotational temperatures (Kelvin)      0.09739     0.01269     0.01180
 Rotational constants (GHZ):           2.02925     0.26443     0.24592
 Zero-point vibrational energy     417755.1 (Joules/Mol)
                                   99.84586 (Kcal/Mol)
 Warning -- explicit consideration of  20 degrees of freedom as
           vibrations may cause significant error
 Vibrational temperatures:     34.73    74.22    99.91   162.31   180.23
          (Kelvin)            250.82   283.32   290.35   328.36   452.57
                              471.52   510.60   593.70   621.09   646.79
                              678.77   712.32   738.61   788.00   879.34
                              921.78  1029.39  1061.79  1129.72  1220.82
                             1253.21  1269.11  1381.19  1441.93  1459.43
                             1483.63  1516.49  1603.48  1624.98  1629.55
                             1656.88  1691.14  1714.17  1728.21  1778.61
                             1825.73  1901.99  1913.71  1956.62  2081.92
                             2147.15  2172.87  2194.65  2218.84  2370.94
                             2406.06  2620.77  4451.04  4554.95  4602.69
                             4642.86  4650.98  4662.76  4670.87  5048.28

 Zero-point correction=                           0.159115 (Hartree/Particle)
 Thermal correction to Energy=                    0.172138
 Thermal correction to Enthalpy=                  0.173082
 Thermal correction to Gibbs Free Energy=         0.117916
 Sum of electronic and zero-point Energies=          -1063.063846
 Sum of electronic and thermal Energies=             -1063.050822
 Sum of electronic and thermal Enthalpies=           -1063.049878
 Sum of electronic and thermal Free Energies=        -1063.105044

                     E (Thermal)             CV                S
                      KCal/Mol        Cal/Mol-Kelvin    Cal/Mol-Kelvin
 Total                  108.018             47.615            116.107
 Electronic               0.000              0.000              0.000
 Translational            0.889              2.981             41.986
 Rotational               0.889              2.981             32.166
 Vibrational            106.241             41.653             41.955
 Vibration     1          0.593              1.985              6.261
 Vibration     2          0.596              1.977              4.756
 Vibration     3          0.598              1.969              4.169
 Vibration     4          0.607              1.939              3.220
 Vibration     5          0.610              1.928              3.017
 Vibration     6          0.627              1.874              2.388
 Vibration     7          0.636              1.844              2.162
 Vibration     8          0.639              1.837              2.117
 Vibration     9          0.651              1.798              1.893
 Vibration    10          0.702              1.646              1.338
 Vibration    11          0.711              1.620              1.271
 Vibration    12          0.731              1.565              1.144
 Vibration    13          0.776              1.443              0.917
 Vibration    14          0.793              1.401              0.853
 Vibration    15          0.808              1.362              0.797
 Vibration    16          0.829              1.313              0.733
 Vibration    17          0.851              1.261              0.671
 Vibration    18          0.868              1.220              0.626
 Vibration    19          0.903              1.145              0.549
 Vibration    20          0.970              1.008              0.431

                           ! Non-Optimized Parameters !
 Normal termination of Gaussian 16 at Sun May 22 15:45:11 2022.
