 Gaussian 16, Revision C.01,
 Gaussian 16:  ES64L-G16RevC.01  3-Jul-2019

 --------------------------------------------------
 #M062X/gen 6D INT(grid=ultrafine) OPT Freq=noraman
 --------------------------------------------------

 ----------------
 A.14.a2b3d2.freq
 ----------------
 Symbolic Z-matrix:
 Charge = -1 Multiplicity = 1

 SCF Done:  E(RM062X) =  -1063.21254252     A.U. after   18 cycles
 SCF Done:  E(RM062X) =  -1063.21312734     A.U. after   17 cycles
 SCF Done:  E(RM062X) =  -1063.20833422     A.U. after   17 cycles
 SCF Done:  E(RM062X) =  -1063.21333305     A.U. after   17 cycles
 SCF Done:  E(RM062X) =  -1063.21569454     A.U. after   17 cycles
 SCF Done:  E(RM062X) =  -1063.21620034     A.U. after   15 cycles
 SCF Done:  E(RM062X) =  -1063.21624218     A.U. after   14 cycles
 SCF Done:  E(RM062X) =  -1063.21626354     A.U. after   14 cycles
 SCF Done:  E(RM062X) =  -1063.21627548     A.U. after   12 cycles
 SCF Done:  E(RM062X) =  -1063.21627958     A.U. after   12 cycles
 SCF Done:  E(RM062X) =  -1063.21628013     A.U. after   11 cycles
 SCF Done:  E(RM062X) =  -1063.21628021     A.U. after   11 cycles
 Optimization completed.
    -- Stationary point found.
 Normal termination of Gaussian 16 at Sun May 22 15:53:03 2022.

 ------------------------------------------------------------------
 #N Geom=AllCheck Guess=TCheck SCRF=Check GenChk RM062X/ChkBas Freq
 ------------------------------------------------------------------

 Structure from the checkpoint file:  "/jobfs/40919109.gadi-pbs/Gau-3068852.chk"
 ----------------
 A.14.a2b3d2.freq
 ----------------
 Charge = -1 Multiplicity = 1

                         Standard orientation:
 ---------------------------------------------------------------------
 Center     Atomic      Atomic             Coordinates (Angstroms)
 Number     Number       Type             X           Y           Z
 ---------------------------------------------------------------------
      1          6           0        0.844044    0.380082   -0.015975
      2          6           0        0.599265   -0.997704    0.019981
      3          6           0       -0.776785   -1.564257    0.173964
      4          6           0        1.660575   -1.904817   -0.040936
      5          1           0        1.445365   -2.967932    0.031510
      6          6           0        2.967194   -1.449713   -0.187482
      7          6           0        3.212317   -0.076619   -0.244543
      8          1           0        4.231198    0.289394   -0.347563
      9          6           0        2.158665    0.828378   -0.145551
     10          1           0        2.329976    1.900912   -0.141809
     11         16           0       -0.486275    1.641851    0.133517
     12          8           0       -1.428866    0.970688    1.068249
     13          8           0        0.243180    2.802527    0.674626
     14          7           0       -1.033187    1.954207   -1.293390
     15          1           0       -1.623094    1.161940   -1.554529
     16          8           0       -1.082246   -2.400489    0.993766
     17          8           0       -1.621660   -1.105374   -0.762780
     18          6           0       -3.002980   -1.280486   -0.462367
     19          1           0        3.788251   -2.159425   -0.245426
     20          1           0       -3.544603   -0.864415   -1.312537
     21          1           0       -3.230187   -0.718122    0.447462
     22          1           0       -3.241245   -2.339394   -0.333075
 ---------------------------------------------------------------------

 SCF Done:  E(RM062X) =  -1063.21628021     A.U. after    1 cycles

 The electronic state is 1-A.
 Alpha  occ. eigenvalues --  -89.97559 -19.57646 -19.52664 -19.45733 -19.45527
 Alpha  occ. eigenvalues --  -14.55922 -10.57565 -10.48988 -10.46112 -10.45836
 Alpha  occ. eigenvalues --  -10.45702 -10.45624 -10.45285 -10.44401  -8.28364
 Alpha  occ. eigenvalues --   -6.20584  -6.20542  -6.20450  -1.12487  -1.04833
 Alpha  occ. eigenvalues --   -1.02987  -0.93274  -0.86118  -0.80245  -0.76406
 Alpha  occ. eigenvalues --   -0.74123  -0.70798  -0.61163  -0.59267  -0.54442
 Alpha  occ. eigenvalues --   -0.52654  -0.49815  -0.45978  -0.45259  -0.44754
 Alpha  occ. eigenvalues --   -0.42213  -0.41576  -0.39669  -0.38753  -0.38247
 Alpha  occ. eigenvalues --   -0.35792  -0.34957  -0.33215  -0.33124  -0.31991
 Alpha  occ. eigenvalues --   -0.30505  -0.26722  -0.25092  -0.24517  -0.22807
 Alpha  occ. eigenvalues --   -0.21609  -0.20919  -0.20087  -0.18539  -0.16614
 Alpha  occ. eigenvalues --   -0.13241
 Alpha virt. eigenvalues --    0.10243   0.10552   0.11533   0.11991   0.12360
 Alpha virt. eigenvalues --    0.13376   0.14513   0.15196   0.16138   0.16962
 Alpha virt. eigenvalues --    0.17275   0.17878   0.18235   0.18439   0.19962

 Mulliken charges:
               1
     1  C   -1.011632
     2  C    0.149684
     3  C    0.313116
     4  C   -0.249673
     5  H    0.209398
     6  C   -0.196223
     7  C    0.066374
     8  H    0.183979
     9  C   -0.137908
    10  H    0.249132
    11  S    1.493224
    12  O   -0.655073
    13  O   -0.632059
    14  N   -0.790637
    15  H    0.370720
    16  O   -0.445444
    17  O   -0.348590
    18  C   -0.422285
    19  H    0.183699
    20  H    0.198080
    21  H    0.267118
    22  H    0.205000
 Sum of Mulliken charges =  -1.00000

 Dipole moment (field-independent basis, Debye):
    X=              2.5863    Y=             -7.1371    Z=             -2.0859  Tot=              7.8726
 Quadrupole moment (field-independent basis, Debye-Ang):
   XX=            -89.0221   YY=           -122.3016   ZZ=           -104.9630
   XY=              4.0703   XZ=              3.1040   YZ=              4.8385

  Exact polarizability:     167.979      -6.595     147.912       1.115      -7.000      97.317
 Approx polarizability:     190.955      -1.103     185.667      -0.897     -11.727     132.317

                      1                      2                      3
                      A                      A                      A
 Frequencies --     63.7040                94.3226               105.0772
 Red. masses --      6.6741                 5.1301                 3.5188
 Frc consts  --      0.0160                 0.0269                 0.0229
 IR Inten    --      3.3593                 1.4313                 4.5361

                      4                      5                      6
                      A                      A                      A
 Frequencies --    111.3421               134.5419               147.0808
 Red. masses --      4.6473                 5.0412                 1.2306
 Frc consts  --      0.0339                 0.0538                 0.0157
 IR Inten    --      4.1647                 0.3693                 0.8523

                      7                      8                      9
                      A                      A                      A
 Frequencies --    201.2239               239.2723               253.8001
 Red. masses --      5.3886                 6.5151                 5.9254
 Frc consts  --      0.1286                 0.2198                 0.2249
 IR Inten    --      1.4914                 0.5368                 2.1294

                     10                     11                     12
                      A                      A                      A
 Frequencies --    290.4352               312.7640               339.3085
 Red. masses --      7.4304                 3.7652                 5.3470
 Frc consts  --      0.3693                 0.2170                 0.3627
 IR Inten    --      2.1681                 8.9763                17.6716

                     13                     14                     15
                      A                      A                      A
 Frequencies --    378.4611               403.5603               463.4198
 Red. masses --      4.9392                 3.4070                 4.3679
 Frc consts  --      0.4168                 0.3269                 0.5527
 IR Inten    --      0.8448                12.5770                17.4793

                     16                     17                     18
                      A                      A                      A
 Frequencies --    485.6926               515.5678               550.0578
 Red. masses --      3.7542                 1.9925                 6.0304
 Frc consts  --      0.5218                 0.3121                 1.0750
 IR Inten    --     16.3409                51.5886                23.3539

                     19                     20                     21
                      A                      A                      A
 Frequencies --    573.4620               594.5960               666.9794
 Red. masses --      4.4298                13.5094                 6.6537
 Frc consts  --      0.8583                 2.8140                 1.7440
 IR Inten    --      9.7064               124.5438                16.0343

                     22                     23                     24
                      A                      A                      A
 Frequencies --    717.9973               742.4648               767.4786
 Red. masses --      5.8779                 5.7489                 1.5503
 Frc consts  --      1.7853                 1.8672                 0.5380
 IR Inten    --     28.2906                22.2224                48.2517

                     25                     26                     27
                      A                      A                      A
 Frequencies --    803.3339               853.8510               904.0957
 Red. masses --      3.6244                 4.8109                 1.4117
 Frc consts  --      1.3781                 2.0665                 0.6799
 IR Inten    --     23.4397                 3.5502                 0.3955

                     28                     29                     30
                      A                      A                      A
 Frequencies --    959.4783               977.5341              1010.9490
 Red. masses --     13.2513                 1.3742                 1.3058
 Frc consts  --      7.1875                 0.7737                 0.7863
 IR Inten    --    147.7015                 1.6475                 0.0731

                     31                     32                     33
                      A                      A                      A
 Frequencies --   1037.7370              1071.6994              1088.7834
 Red. masses --      6.4252                 3.2542                 2.8162
 Frc consts  --      4.0767                 2.2021                 1.9670
 IR Inten    --     22.2309                 2.4693                38.5340

                     34                     35                     36
                      A                      A                      A
 Frequencies --   1123.8341              1150.3504              1159.0228
 Red. masses --      2.9205                 2.2109                 1.7056
 Frc consts  --      2.1733                 1.7238                 1.3500
 IR Inten    --    280.7338                84.0914                23.4194

                     37                     38                     39
                      A                      A                      A
 Frequencies --   1173.7650              1180.5197              1194.3814
 Red. masses --      2.1810                 1.1527                 1.5101
 Frc consts  --      1.7704                 0.9465                 1.2692
 IR Inten    --     55.5679                 3.4187                16.0384

                     40                     41                     42
                      A                      A                      A
 Frequencies --   1240.2493              1262.1458              1283.5103
 Red. masses --      1.6327                 5.0087                 1.5342
 Frc consts  --      1.4797                 4.7011                 1.4891
 IR Inten    --     14.3455               230.7005                36.7015

                     43                     44                     45
                      A                      A                      A
 Frequencies --   1339.3787              1348.8261              1479.2263
 Red. masses --      6.7577                 4.0219                 1.4582
 Frc consts  --      7.1426                 4.3111                 1.8799
 IR Inten    --     46.0671               340.6110                13.5781

                     46                     47                     48
                      A                      A                      A
 Frequencies --   1489.2657              1509.6713              1519.8975
 Red. masses --      1.8380                 1.0546                 2.5144
 Frc consts  --      2.4018                 1.4161                 3.4222
 IR Inten    --     25.8481                 8.2479                 4.3961

                     49                     50                     51
                      A                      A                      A
 Frequencies --   1524.5107              1649.4520              1678.1417
 Red. masses --      1.0814                 6.7046                 6.3415
 Frc consts  --      1.4809                10.7473                10.5220
 IR Inten    --      8.9918                 1.9929                16.9190

                     52                     53                     54
                      A                      A                      A
 Frequencies --   1840.4625              3092.4815              3176.0692
 Red. masses --     12.1068                 1.0291                 1.1071
 Frc consts  --     24.1621                 5.7985                 6.5796
 IR Inten    --    333.1278                60.3092                12.1829

                     55                     56                     57
                      A                      A                      A
 Frequencies --   3195.9787              3199.4004              3213.7642
 Red. masses --      1.1063                 1.0855                 1.0903
 Frc consts  --      6.6581                 6.5465                 6.6348
 IR Inten    --     16.7153                 7.1716                24.2905

                     58                     59                     60
                      A                      A                      A
 Frequencies --   3227.3413              3238.4440              3525.4958
 Red. masses --      1.0959                 1.0933                 1.0721
 Frc consts  --      6.7254                 6.7557                 7.8507
 IR Inten    --     32.3445                12.7749                 3.3391

 - Thermochemistry -
 -------------------
 Temperature   298.150 Kelvin.  Pressure   1.00000 Atm.
 Atom     1 has atomic number  6 and mass  12.00000

 Molecular mass:   214.01740 amu.
 Principal axes and moments of inertia in atomic units:
                           1         2         3
     Eigenvalues --  2287.371982585.599374275.99793
           X            0.99869   0.05071   0.00733
           Y           -0.05071   0.99871  -0.00001
           Z           -0.00732  -0.00036   0.99997
 This molecule is an asymmetric top.
 Rotational symmetry number  1.
 Warning -- assumption of classical behavior for rotation
           may cause significant error
 Rotational temperatures (Kelvin)      0.03787     0.03350     0.02026
 Rotational constants (GHZ):           0.78900     0.69800     0.42206
 Zero-point vibrational energy     417949.3 (Joules/Mol)
                                   99.89227 (Kcal/Mol)
 Warning -- explicit consideration of  20 degrees of freedom as
           vibrations may cause significant error
 Vibrational temperatures:     91.66   135.71   151.18   160.20   193.58
          (Kelvin)            211.62   289.52   344.26   365.16   417.87
                              450.00   488.19   544.52   580.63   666.76
                              698.80   741.79   791.41   825.08   855.49
                              959.63  1033.04  1068.24  1104.23  1155.82
                             1228.50  1300.79  1380.48  1406.45  1454.53
                             1493.07  1541.94  1566.52  1616.95  1655.10
                             1667.58  1688.79  1698.50  1718.45  1784.44
                             1815.95  1846.69  1927.07  1940.66  2128.28
                             2142.72  2172.08  2186.79  2193.43  2373.19
                             2414.47  2648.02  4449.39  4569.66  4598.30
                             4603.22  4623.89  4643.42  4659.40  5072.40

 Zero-point correction=                           0.159188 (Hartree/Particle)
 Thermal correction to Energy=                    0.171968
 Thermal correction to Enthalpy=                  0.172912
 Thermal correction to Gibbs Free Energy=         0.119895
 Sum of electronic and zero-point Energies=          -1063.057092
 Sum of electronic and thermal Energies=             -1063.044312
 Sum of electronic and thermal Enthalpies=           -1063.043368
 Sum of electronic and thermal Free Energies=        -1063.096385

                     E (Thermal)             CV                S
                      KCal/Mol        Cal/Mol-Kelvin    Cal/Mol-Kelvin
 Total                  107.912             47.580            111.584
 Electronic               0.000              0.000              0.000
 Translational            0.889              2.981             41.986
 Rotational               0.889              2.981             31.603
 Vibrational            106.134             41.618             37.995
 Vibration     1          0.597              1.972              4.339
 Vibration     2          0.603              1.953              3.568
 Vibration     3          0.605              1.945              3.358
 Vibration     4          0.607              1.940              3.245
 Vibration     5          0.613              1.919              2.880
 Vibration     6          0.617              1.906              2.710
 Vibration     7          0.638              1.838              2.122
 Vibration     8          0.657              1.780              1.808
 Vibration     9          0.665              1.756              1.704
 Vibration    10          0.686              1.692              1.471
 Vibration    11          0.701              1.649              1.348
 Vibration    12          0.719              1.597              1.215
 Vibration    13          0.749              1.516              1.045
 Vibration    14          0.769              1.462              0.950
 Vibration    15          0.821              1.331              0.756
 Vibration    16          0.842              1.282              0.695
 Vibration    17          0.871              1.216              0.620
 Vibration    18          0.905              1.140              0.544
 Vibration    19          0.930              1.089              0.498
 Vibration    20          0.952              1.043              0.459

 Optimization completed.
    -- Stationary point found.
 Normal termination of Gaussian 16 at Sun May 22 15:58:16 2022.
