 Gaussian 16, Revision C.01,
 Gaussian 16:  ES64L-G16RevC.01  3-Jul-2019

 --------------------------------------------------
 #M062X/gen 6D INT(grid=ultrafine) OPT Freq=noraman
 --------------------------------------------------

 ------------
 A.15.a1.freq
 ------------
 Symbolic Z-matrix:
 Charge = -1 Multiplicity = 1

 SCF Done:  E(RM062X) =  -1043.35410343     A.U. after   18 cycles
 SCF Done:  E(RM062X) =  -1043.35713809     A.U. after   16 cycles
 SCF Done:  E(RM062X) =  -1043.35808638     A.U. after   17 cycles
 SCF Done:  E(RM062X) =  -1043.35842086     A.U. after   16 cycles
 SCF Done:  E(RM062X) =  -1043.35853432     A.U. after   18 cycles
 SCF Done:  E(RM062X) =  -1043.35872831     A.U. after   15 cycles
 SCF Done:  E(RM062X) =  -1043.35878409     A.U. after   15 cycles
 SCF Done:  E(RM062X) =  -1043.35879863     A.U. after   15 cycles
 SCF Done:  E(RM062X) =  -1043.35881726     A.U. after   15 cycles
 SCF Done:  E(RM062X) =  -1043.35884070     A.U. after   14 cycles
 SCF Done:  E(RM062X) =  -1043.35886725     A.U. after   15 cycles
 SCF Done:  E(RM062X) =  -1043.35887538     A.U. after   16 cycles
 SCF Done:  E(RM062X) =  -1043.35887614     A.U. after   13 cycles
 SCF Done:  E(RM062X) =  -1043.35887675     A.U. after   13 cycles
 SCF Done:  E(RM062X) =  -1043.35887724     A.U. after   13 cycles
 SCF Done:  E(RM062X) =  -1043.35887730     A.U. after   12 cycles
 SCF Done:  E(RM062X) =  -1043.35887734     A.U. after   13 cycles
 Optimization completed.
    -- Stationary point found.
 Normal termination of Gaussian 16 at Sun May 22 16:00:57 2022.

 ------------------------------------------------------------------
 #N Geom=AllCheck Guess=TCheck SCRF=Check GenChk RM062X/ChkBas Freq
 ------------------------------------------------------------------

 Structure from the checkpoint file:  "/jobfs/40919559.gadi-pbs/Gau-916758.chk"
 ------------
 A.15.a1.freq
 ------------
 Charge = -1 Multiplicity = 1

                         Standard orientation:
 ---------------------------------------------------------------------
 Center     Atomic      Atomic             Coordinates (Angstroms)
 Number     Number       Type             X           Y           Z
 ---------------------------------------------------------------------
      1          6           0        1.237524    0.041079   -0.107837
      2          6           0        0.606598    1.271851    0.070982
      3          1           0        1.221967    2.156817    0.207755
      4          6           0       -0.782795    1.353938    0.050167
      5          1           0       -1.292947    2.304632    0.178105
      6          6           0       -1.554803    0.203633   -0.136807
      7          6           0       -3.041376    0.342356   -0.106893
      8          6           0       -0.913365   -1.026404   -0.340825
      9          1           0       -1.495060   -1.921485   -0.552608
     10          6           0        0.474553   -1.105688   -0.329744
     11          1           0        0.989741   -2.045559   -0.506515
     12         16           0        3.049767   -0.104043    0.040365
     13          8           0        3.358408   -1.210162   -0.884273
     14          8           0        3.512178    1.251169   -0.350258
     15          7           0        3.355649   -0.510862    1.520431
     16          1           0        3.394550    0.359231    2.055323
     17          7           0       -3.745854   -0.795549    0.191494
     18          8           0       -3.624725    1.397995   -0.328383
     19          6           0       -5.182334   -0.725937    0.352931
     20          1           0       -5.574304   -1.737465    0.478617
     21          1           0       -5.625351   -0.276126   -0.538277
     22          1           0       -5.468129   -0.112562    1.216343
     23          1           0       -3.246193   -1.558906    0.623429
 ---------------------------------------------------------------------

 SCF Done:  E(RM062X) =  -1043.35887734     A.U. after    1 cycles

 The electronic state is 1-A.
 Alpha  occ. eigenvalues --  -89.97479 -19.52828 -19.45757 -19.45575 -14.70839
 Alpha  occ. eigenvalues --  -14.56174 -10.56868 -10.50910 -10.46507 -10.46364
 Alpha  occ. eigenvalues --  -10.45628 -10.45048 -10.44773 -10.44660  -8.28319
 Alpha  occ. eigenvalues --   -6.20545  -6.20490  -6.20405  -1.07596  -1.04870
 Alpha  occ. eigenvalues --   -0.95021  -0.93366  -0.86235  -0.80239  -0.76548
 Alpha  occ. eigenvalues --   -0.74292  -0.71601  -0.62145  -0.58909  -0.57954
 Alpha  occ. eigenvalues --   -0.52659  -0.52343  -0.46495  -0.45297  -0.44825
 Alpha  occ. eigenvalues --   -0.42023  -0.41301  -0.40338  -0.39206  -0.38991
 Alpha  occ. eigenvalues --   -0.38270  -0.37690  -0.35493  -0.34101  -0.32729
 Alpha  occ. eigenvalues --   -0.29785  -0.26079  -0.25038  -0.23744  -0.22828
 Alpha  occ. eigenvalues --   -0.21751  -0.20732  -0.20486  -0.18699  -0.16415
 Alpha  occ. eigenvalues --   -0.13373
 Alpha virt. eigenvalues --    0.08057   0.08930   0.09875   0.11324   0.11886
 Alpha virt. eigenvalues --    0.12480   0.13365   0.13961   0.15137   0.15597
 Alpha virt. eigenvalues --    0.16981   0.17206   0.17470   0.18043   0.18513

 Mulliken charges:
               1
     1  C   -1.375357
     2  C    0.370582
     3  H    0.238793
     4  C   -0.186691
     5  H    0.223645
     6  C    0.377606
     7  C    0.415052
     8  C   -0.308739
     9  H    0.182621
    10  C   -0.455408
    11  H    0.241982
    12  S    1.472987
    13  O   -0.605125
    14  O   -0.631097
    15  N   -0.806354
    16  H    0.337418
    17  N   -0.546896
    18  O   -0.548687
    19  C   -0.443861
    20  H    0.191390
    21  H    0.234851
    22  H    0.217669
    23  H    0.403618
 Sum of Mulliken charges =  -1.00000

 Dipole moment (field-independent basis, Debye):
    X=            -13.0582    Y=             -1.4537    Z=              1.4978  Tot=             13.2239
 Quadrupole moment (field-independent basis, Debye-Ang):
   XX=           -155.9573   YY=            -99.0222   ZZ=           -100.2894
   XY=             19.7921   XZ=             -3.6242   YZ=              4.1587

  Exact polarizability:     208.900      -0.851     136.998       6.099       0.906     100.089
 Approx polarizability:     208.792      -4.603     193.099       6.587       2.831     130.115

                      1                      2                      3
                      A                      A                      A
 Frequencies --     21.6113                47.8092                71.4818
 Red. masses --      6.2540                 4.6393                 4.2612
 Frc consts  --      0.0017                 0.0062                 0.0128
 IR Inten    --      3.2713                 0.9369                 6.8060

                      4                      5                      6
                      A                      A                      A
 Frequencies --    104.8619               107.7939               134.5875
 Red. masses --      2.7518                 1.4142                 4.1296
 Frc consts  --      0.0178                 0.0097                 0.0441
 IR Inten    --      2.4016                 1.1553                 5.1520

                      7                      8                      9
                      A                      A                      A
 Frequencies --    181.3487               213.1372               230.9953
 Red. masses --      6.1380                 5.4111                 8.0993
 Frc consts  --      0.1189                 0.1448                 0.2546
 IR Inten    --      6.1654                 2.7309                 3.7487

                     10                     11                     12
                      A                      A                      A
 Frequencies --    291.3115               318.8405               337.1920
 Red. masses --      4.0767                 3.2852                 3.9646
 Frc consts  --      0.2038                 0.1968                 0.2656
 IR Inten    --     14.0875                 7.3535                37.3238

                     13                     14                     15
                      A                      A                      A
 Frequencies --    413.8648               421.2627               444.6257
 Red. masses --      3.0130                 3.2004                 2.4581
 Frc consts  --      0.3041                 0.3346                 0.2863
 IR Inten    --      7.7375                22.3255                31.9402

                     16                     17                     18
                      A                      A                      A
 Frequencies --    452.4260               477.1690               491.5854
 Red. masses --      2.6968                 1.8355                 3.2078
 Frc consts  --      0.3252                 0.2462                 0.4567
 IR Inten    --     16.1371                39.6376                72.2990

                     19                     20                     21
                      A                      A                      A
 Frequencies --    517.5873               553.1669               611.4712
 Red. masses --      5.4951                 4.1314                12.5823
 Frc consts  --      0.8673                 0.7448                 2.7718
 IR Inten    --      3.3471                50.5705               141.6300

                     22                     23                     24
                      A                      A                      A
 Frequencies --    641.8649               719.3474               734.2037
 Red. masses --      6.8995                 3.9971                 6.2075
 Frc consts  --      1.6748                 1.2186                 1.9715
 IR Inten    --      0.8028                22.7597                58.4958

                     25                     26                     27
                      A                      A                      A
 Frequencies --    783.2332               851.8843               862.3412
 Red. masses --      4.1437                 3.2597                 1.5322
 Frc consts  --      1.4977                 1.3938                 0.6713
 IR Inten    --     12.4547                 5.4919                 6.8197

                     28                     29                     30
                      A                      A                      A
 Frequencies --    882.6876               959.1436               992.5487
 Red. masses --      1.4895                13.1971                 1.3467
 Frc consts  --      0.6838                 7.1531                 0.7817
 IR Inten    --     10.2684               245.4009                 1.9517

                     31                     32                     33
                      A                      A                      A
 Frequencies --   1012.2725              1031.4634              1056.8864
 Red. masses --      1.3538                 3.9540                 2.9886
 Frc consts  --      0.8173                 2.4785                 1.9669
 IR Inten    --      0.9752                 8.9855                 6.0505

                     34                     35                     36
                      A                      A                      A
 Frequencies --   1114.7549              1128.3568              1133.7891
 Red. masses --      2.9077                 1.3775                 1.8559
 Frc consts  --      2.1289                 1.0333                 1.4056
 IR Inten    --    218.3156                24.0368                31.8590

                     37                     38                     39
                      A                      A                      A
 Frequencies --   1150.4575              1157.2659              1187.7955
 Red. masses --      3.4209                 1.2957                 1.6921
 Frc consts  --      2.6677                 1.0224                 1.4066
 IR Inten    --    158.4873                 4.6333                 2.1734

                     40                     41                     42
                      A                      A                      A
 Frequencies --   1197.5770              1210.4749              1267.8050
 Red. masses --      1.5278                 1.9381                 5.8536
 Frc consts  --      1.2910                 1.6732                 5.5434
 IR Inten    --      2.8611                 6.8249               221.2790

                     43                     44                     45
                      A                      A                      A
 Frequencies --   1309.8868              1324.3822              1352.3838
 Red. masses --      2.1971                 1.3492                 8.6569
 Frc consts  --      2.2211                 1.3943                 9.3285
 IR Inten    --    176.4806                25.1135                12.4444

                     46                     47                     48
                      A                      A                      A
 Frequencies --   1441.4022              1468.5875              1501.8758
 Red. masses --      3.1075                 1.1974                 1.0760
 Frc consts  --      3.8039                 1.5216                 1.4300
 IR Inten    --      3.9376                12.2160                38.5615

                     49                     50                     51
                      A                      A                      A
 Frequencies --   1525.8746              1539.9392              1570.6010
 Red. masses --      1.4316                 1.5638                 1.9693
 Frc consts  --      1.9638                 2.1850                 2.8621
 IR Inten    --     67.3401                 9.9738               317.1430

                     52                     53                     54
                      A                      A                      A
 Frequencies --   1647.0858              1674.2059              1779.4579
 Red. masses --      7.5844                 6.0155                10.0715
 Frc consts  --     12.1229                 9.9343                18.7896
 IR Inten    --     12.8109                79.8177               342.6462

                     55                     56                     57
                      A                      A                      A
 Frequencies --   3069.6742              3143.7288              3181.5488
 Red. masses --      1.0428                 1.0923                 1.1049
 Frc consts  --      5.7896                 6.3601                 6.5893
 IR Inten    --     72.6107                31.1521                16.4657

                     58                     59                     60
                      A                      A                      A
 Frequencies --   3197.9225              3225.8033              3237.7897
 Red. masses --      1.0886                 1.0877                 1.0926
 Frc consts  --      6.5595                 6.6688                 6.7485
 IR Inten    --     21.3777                 0.8894                 5.3723

                     61                     62                     63
                      A                      A                      A
 Frequencies --   3239.7526              3506.3465              3672.8785
 Red. masses --      1.0946                 1.0731                 1.0781
 Frc consts  --      6.7689                 7.7734                 8.5689
 IR Inten    --      4.5653                 5.6680                24.4864

 - Thermochemistry -
 -------------------
 Temperature   298.150 Kelvin.  Pressure   1.00000 Atm.
 Atom     1 has atomic number  6 and mass  12.00000

 Molecular mass:   213.03339 amu.
 Principal axes and moments of inertia in atomic units:
                           1         2         3
     Eigenvalues --   907.678026879.922387350.86906
           X            0.99994   0.01118  -0.00055
           Y           -0.01117   0.99984   0.01393
           Z            0.00071  -0.01393   0.99990
 This molecule is an asymmetric top.
 Rotational symmetry number  1.
 Warning -- assumption of classical behavior for rotation
           may cause significant error
 Rotational temperatures (Kelvin)      0.09542     0.01259     0.01178
 Rotational constants (GHZ):           1.98831     0.26232     0.24551
 Zero-point vibrational energy     449385.6 (Joules/Mol)
                                  107.40574 (Kcal/Mol)
 Warning -- explicit consideration of  21 degrees of freedom as
           vibrations may cause significant error
 Vibrational temperatures:     31.09    68.79   102.85   150.87   155.09
          (Kelvin)            193.64   260.92   306.66   332.35   419.13
                              458.74   485.14   595.46   606.10   639.72
                              650.94   686.54   707.28   744.69   795.88
                              879.77   923.50  1034.98  1056.36  1126.90
                             1225.67  1240.72  1269.99  1379.99  1428.06
                             1456.43  1484.05  1520.62  1603.88  1623.45
                             1631.27  1655.25  1665.05  1708.97  1723.05
                             1741.60  1824.09  1884.63  1905.49  1945.78
                             2073.86  2112.97  2160.86  2195.39  2215.63
                             2259.74  2369.79  2408.81  2560.24  4416.58
                             4523.12  4577.54  4601.10  4641.21  4658.46
                             4661.28  5044.85  5284.45

 Zero-point correction=                           0.171162 (Hartree/Particle)
 Thermal correction to Energy=                    0.184651
 Thermal correction to Enthalpy=                  0.185595
 Thermal correction to Gibbs Free Energy=         0.129302
 Sum of electronic and zero-point Energies=          -1043.187715
 Sum of electronic and thermal Energies=             -1043.174226
 Sum of electronic and thermal Enthalpies=           -1043.173282
 Sum of electronic and thermal Free Energies=        -1043.229576

                     E (Thermal)             CV                S
                      KCal/Mol        Cal/Mol-Kelvin    Cal/Mol-Kelvin
 Total                  115.870             49.277            118.480
 Electronic               0.000              0.000              0.000
 Translational            0.889              2.981             41.972
 Rotational               0.889              2.981             32.196
 Vibrational            114.093             43.315             44.312
 Vibration     1          0.593              1.985              6.480
 Vibration     2          0.595              1.978              4.906
 Vibration     3          0.598              1.968              4.112
 Vibration     4          0.605              1.945              3.362
 Vibration     5          0.606              1.943              3.308
 Vibration     6          0.613              1.919              2.879
 Vibration     7          0.630              1.865              2.314
 Vibration     8          0.644              1.821              2.017
 Vibration     9          0.653              1.794              1.871
 Vibration    10          0.687              1.690              1.466
 Vibration    11          0.705              1.638              1.316
 Vibration    12          0.718              1.601              1.225
 Vibration    13          0.777              1.440              0.913
 Vibration    14          0.784              1.424              0.888
 Vibration    15          0.804              1.373              0.812
 Vibration    16          0.811              1.356              0.788
 Vibration    17          0.834              1.301              0.718
 Vibration    18          0.847              1.269              0.679
 Vibration    19          0.873              1.211              0.616
 Vibration    20          0.909              1.133              0.538
 Vibration    21          0.971              1.008              0.430

 Optimization completed.
    -- Stationary point found.
 Normal termination of Gaussian 16 at Sun May 22 16:06:04 2022.
