 Gaussian 16, Revision C.01,
 Gaussian 16:  ES64L-G16RevC.01  3-Jul-2019

 --------------------------------------------------
 #M062X/gen 6D INT(grid=ultrafine) OPT Freq=noraman
 --------------------------------------------------

 ------------
 A.16.a2.freq
 ------------
 Symbolic Z-matrix:
 Charge = -1 Multiplicity = 1

 SCF Done:  E(RM062X) =  -941.410262946     A.U. after   13 cycles
 SCF Done:  E(RM062X) =  -941.411207966     A.U. after   11 cycles
 SCF Done:  E(RM062X) =  -941.411348006     A.U. after   11 cycles
 SCF Done:  E(RM062X) =  -941.411362981     A.U. after   10 cycles
 SCF Done:  E(RM062X) =  -941.411370112     A.U. after   10 cycles
 SCF Done:  E(RM062X) =  -941.411373415     A.U. after    9 cycles
 SCF Done:  E(RM062X) =  -941.411374325     A.U. after    9 cycles
 Optimization completed.
    -- Stationary point found.
 Normal termination of Gaussian 16 at Fri May 20 19:50:32 2022.

 ------------------------------------------------------------------
 #N Geom=AllCheck Guess=TCheck SCRF=Check GenChk RM062X/ChkBas Freq
 ------------------------------------------------------------------

 Structure from the checkpoint file:  "/jobfs/40766132.gadi-pbs/Gau-2077767.chk"
 ------------
 A.16.a2.freq
 ------------
 Charge = -1 Multiplicity = 1

                         Standard orientation:
 ---------------------------------------------------------------------
 Center     Atomic      Atomic             Coordinates (Angstroms)
 Number     Number       Type             X           Y           Z
 ---------------------------------------------------------------------
      1          6           0       -0.943536    0.021537   -0.020150
      2         16           0        0.924529   -0.058401    0.015247
      3          8           0        1.155683    0.069046    1.468683
      4          8           0        1.155854   -1.371450   -0.595738
      5          7           0        1.425655    1.111562   -0.872631
      6          1           0        1.451166    1.939988   -0.275623
      7          9           0       -1.382645    1.213492    0.437446
      8          9           0       -1.519736   -0.923657    0.743024
      9          9           0       -1.436985   -0.122779   -1.260756
 ---------------------------------------------------------------------

 SCF Done:  E(RM062X) =  -941.411374325     A.U. after    1 cycles

 The electronic state is 1-A.
 Alpha  occ. eigenvalues --  -89.98256 -25.16168 -25.16005 -25.15979 -19.46576
 Alpha  occ. eigenvalues --  -19.46446 -14.57065 -10.65283  -8.29141  -6.21344
 Alpha  occ. eigenvalues --   -6.21325  -6.21221  -1.32330  -1.23134  -1.23081
 Alpha  occ. eigenvalues --   -1.05909  -0.94362  -0.81516  -0.68277  -0.57845
 Alpha  occ. eigenvalues --   -0.54643  -0.54580  -0.48531  -0.43173  -0.43056
 Alpha  occ. eigenvalues --   -0.40410  -0.39048  -0.38668  -0.37924  -0.36976
 Alpha  occ. eigenvalues --   -0.35922  -0.26797  -0.23361  -0.21995  -0.19985
 Alpha  occ. eigenvalues --   -0.17208  -0.15360
 Alpha virt. eigenvalues --    0.14448   0.16333   0.17789   0.17828   0.19663
 Alpha virt. eigenvalues --    0.20105   0.20643   0.25188   0.27449   0.27680
 Alpha virt. eigenvalues --    0.29104   0.30799   0.31706   0.33382   0.34937

 Mulliken charges:
               1
     1  C    0.698522
     2  S    1.087120
     3  O   -0.658760
     4  O   -0.648895
     5  N   -0.859540
     6  H    0.347046
     7  F   -0.336704
     8  F   -0.320248
     9  F   -0.308543
 Sum of Mulliken charges =  -1.00000

 Dipole moment (field-independent basis, Debye):
    X=             -3.8920    Y=              1.4398    Z=              0.7239  Tot=              4.2125
 Quadrupole moment (field-independent basis, Debye-Ang):
   XX=            -64.4409   YY=            -58.0409   ZZ=            -64.4356
   XY=              1.7533   XZ=              1.8067   YZ=              0.9737

  Exact polarizability:      55.021       2.595      54.303      -1.806      -1.927      52.886
 Approx polarizability:      58.018       2.500      66.615      -2.166      -1.333      66.284

                      1                      2                      3
                      A                      A                      A
 Frequencies --     66.8623               185.0326               194.7283
 Red. masses --     13.2969                 7.8357                16.8748
 Frc consts  --      0.0350                 0.1581                 0.3770
 IR Inten    --      0.4048                 2.7555                 2.4536

                      4                      5                      6
                      A                      A                      A
 Frequencies --    290.7797               326.8808               337.4538
 Red. masses --     15.6164                 8.7565                10.0295
 Frc consts  --      0.7780                 0.5513                 0.6729
 IR Inten    --      0.5147                 3.2058                 4.0524

                      7                      8                      9
                      A                      A                      A
 Frequencies --    449.1436               498.2089               516.1266
 Red. masses --      2.8667                10.8501                 1.6987
 Frc consts  --      0.3407                 1.5867                 0.2666
 IR Inten    --     36.0950                21.3287                61.3282

                     10                     11                     12
                      A                      A                      A
 Frequencies --    554.2635               562.2156               608.5979
 Red. masses --     14.4655                16.8632                20.4186
 Frc consts  --      2.6183                 3.1405                 4.4559
 IR Inten    --      2.1739                 9.4762               193.5857

                     13                     14                     15
                      A                      A                      A
 Frequencies --    754.6060               972.7637              1126.7272
 Red. masses --     18.1735                14.5102                 1.5002
 Frc consts  --      6.0972                 8.0898                 1.1221
 IR Inten    --      3.8921               186.8452               132.0623

                     16                     17                     18
                      A                      A                      A
 Frequencies --   1171.3863              1197.1635              1222.6417
 Red. masses --      6.9628                12.1601                10.7800
 Frc consts  --      5.6290                10.2682                 9.4944
 IR Inten    --     70.3013               202.4009               381.7058

                     19                     20                     21
                      A                      A                      A
 Frequencies --   1247.3501              1304.5155              3518.2493
 Red. masses --     13.4589                 8.1417                 1.0732
 Frc consts  --     12.3377                 8.1632                 7.8268
 IR Inten    --    124.9141               380.1517                 5.3803

 - Thermochemistry -
 -------------------
 Temperature   298.150 Kelvin.  Pressure   1.00000 Atm.
 Atom     1 has atomic number  6 and mass  12.00000

 Molecular mass:   147.96801 amu.
 Principal axes and moments of inertia in atomic units:
                           1         2         3
     Eigenvalues --   682.097751162.401581166.62508
           X            0.99976   0.01663  -0.01456
           Y           -0.02183   0.84465  -0.53487
           Z            0.00340   0.53506   0.84481
 This molecule is an asymmetric top.
 Rotational symmetry number  1.
 Warning -- assumption of classical behavior for rotation
           may cause significant error
 Rotational temperatures (Kelvin)      0.12698     0.07451     0.07424
 Rotational constants (GHZ):           2.64587     1.55260     1.54698
 Zero-point vibrational energy     102314.8 (Joules/Mol)
                                   24.45382 (Kcal/Mol)
 Warning -- explicit consideration of  12 degrees of freedom as
           vibrations may cause significant error
 Vibrational temperatures:     96.20   266.22   280.17   418.37   470.31
          (Kelvin)            485.52   646.22   716.81   742.59   797.46
                              808.90   875.64  1085.71  1399.59  1621.11
                             1685.36  1722.45  1759.11  1794.66  1876.91
                             5061.98

 Zero-point correction=                           0.038970 (Hartree/Particle)
 Thermal correction to Energy=                    0.046409
 Thermal correction to Enthalpy=                  0.047353
 Thermal correction to Gibbs Free Energy=         0.006474
 Sum of electronic and zero-point Energies=           -941.372405
 Sum of electronic and thermal Energies=              -941.364965
 Sum of electronic and thermal Enthalpies=            -941.364021
 Sum of electronic and thermal Free Energies=         -941.404901

                     E (Thermal)             CV                S
                      KCal/Mol        Cal/Mol-Kelvin    Cal/Mol-Kelvin
 Total                   29.122             25.978             86.039
 Electronic               0.000              0.000              0.000
 Translational            0.889              2.981             40.886
 Rotational               0.889              2.981             28.316
 Vibrational             27.345             20.017             16.837
 Vibration     1          0.598              1.970              4.244
 Vibration     2          0.631              1.860              2.277
 Vibration     3          0.635              1.847              2.182
 Vibration     4          0.687              1.691              1.469
 Vibration     5          0.711              1.622              1.275
 Vibration     6          0.718              1.601              1.224
 Vibration     7          0.808              1.363              0.798
 Vibration     8          0.854              1.254              0.663
 Vibration     9          0.871              1.214              0.619
 Vibration    10          0.910              1.130              0.535
 Vibration    11          0.918              1.113              0.519
 Vibration    12          0.967              1.014              0.435

                           ! Non-Optimized Parameters !
 Normal termination of Gaussian 16 at Fri May 20 19:51:21 2022.
