 Gaussian 16, Revision C.01,
 Gaussian 16:  ES64L-G16RevC.01  3-Jul-2019

 --------------------------------------------------
 #M062X/gen 6D INT(grid=ultrafine) OPT Freq=noraman
 --------------------------------------------------

 ------------
 A.17.a1.freq
 ------------
 Symbolic Z-matrix:
 Charge = -1 Multiplicity = 1

 SCF Done:  E(RM062X) =  -643.743745474     A.U. after   13 cycles
 SCF Done:  E(RM062X) =  -643.745334593     A.U. after   12 cycles
 SCF Done:  E(RM062X) =  -643.745998733     A.U. after   12 cycles
 SCF Done:  E(RM062X) =  -643.746212874     A.U. after   12 cycles
 SCF Done:  E(RM062X) =  -643.746331690     A.U. after   12 cycles
 SCF Done:  E(RM062X) =  -643.746378096     A.U. after   11 cycles
 SCF Done:  E(RM062X) =  -643.746398257     A.U. after   11 cycles
 SCF Done:  E(RM062X) =  -643.746399118     A.U. after    9 cycles
 Optimization completed.
    -- Stationary point found.
 Normal termination of Gaussian 16 at Fri May 20 19:51:47 2022.

 ------------------------------------------------------------------
 #N Geom=AllCheck Guess=TCheck SCRF=Check GenChk RM062X/ChkBas Freq
 ------------------------------------------------------------------

 Structure from the checkpoint file:  "/jobfs/40766276.gadi-pbs/Gau-2413161.chk"
 ------------
 A.17.a1.freq
 ------------
 Charge = -1 Multiplicity = 1

                         Standard orientation:
 ---------------------------------------------------------------------
 Center     Atomic      Atomic             Coordinates (Angstroms)
 Number     Number       Type             X           Y           Z
 ---------------------------------------------------------------------
      1         16           0        0.152652   -0.064868    0.028150
      2          8           0        0.361199    0.296236    1.460094
      3          8           0        0.136816   -1.511099   -0.283698
      4          7           0        1.062067    0.725908   -0.981059
      5          1           0        1.317081    1.593495   -0.505306
      6          6           0       -1.577168    0.422738   -0.257954
      7          1           0       -1.820380    0.207701   -1.300573
      8          1           0       -1.677322    1.491987   -0.054956
      9          1           0       -2.217399   -0.154182    0.414390
 ---------------------------------------------------------------------

 SCF Done:  E(RM062X) =  -643.746399118     A.U. after    1 cycles

 The electronic state is 1-A.
 Alpha  occ. eigenvalues --  -89.94840 -19.43149 -19.42926 -14.53641 -10.40318
 Alpha  occ. eigenvalues --   -8.25730  -6.17955  -6.17878  -6.17810  -1.01932
 Alpha  occ. eigenvalues --   -0.90403  -0.77587  -0.66663  -0.48484  -0.38574
 Alpha  occ. eigenvalues --   -0.36584  -0.35566  -0.32579  -0.31094  -0.23531
 Alpha  occ. eigenvalues --   -0.19929  -0.18060  -0.16437  -0.13873  -0.11446
 Alpha virt. eigenvalues --    0.14086   0.17562   0.18959   0.19139   0.20641
 Alpha virt. eigenvalues --    0.20943   0.21282   0.27320   0.28789   0.29587
 Alpha virt. eigenvalues --    0.32771   0.34614   0.35938   0.36678   0.37896

 Mulliken charges:
               1
     1  S    1.130357
     2  O   -0.714525
     3  O   -0.674226
     4  N   -0.915951
     5  H    0.326126
     6  C   -0.798734
     7  H    0.224079
     8  H    0.205817
     9  H    0.217056
 Sum of Mulliken charges =  -1.00000

 Dipole moment (field-independent basis, Debye):
    X=             -3.5190    Y=              2.3069    Z=              0.1437  Tot=              4.2102
 Quadrupole moment (field-independent basis, Debye-Ang):
   XX=            -43.4710   YY=            -45.5647   ZZ=            -51.5603
   XY=              0.3754   XZ=              2.3847   YZ=             -0.3633

  Exact polarizability:      59.535       0.530      52.166      -1.954      -1.523      52.649
 Approx polarizability:      61.221       1.960      61.611      -2.826      -0.174      62.284

                      1                      2                      3
                      A                      A                      A
 Frequencies --    247.7465               288.2170               299.3867
 Red. masses --      1.0640                 1.9132                 3.5588
 Frc consts  --      0.0385                 0.0936                 0.1879
 IR Inten    --      3.3014                31.3044                 0.6176

                      4                      5                      6
                      A                      A                      A
 Frequencies --    379.8232               474.8424               492.8365
 Red. masses --      1.8281                 3.2656                 7.7343
 Frc consts  --      0.1554                 0.4338                 1.1068
 IR Inten    --     36.5013                43.1484                22.2528

                      7                      8                      9
                      A                      A                      A
 Frequencies --    519.6495               735.8364               941.5415
 Red. masses --      5.7695                 6.5665                 2.3585
 Frc consts  --      0.9179                 2.0948                 1.2319
 IR Inten    --     21.5335               108.3203                74.9750

                     10                     11                     12
                      A                      A                      A
 Frequencies --    959.7635               973.9434              1117.1249
 Red. masses --      1.3548                 2.5804                 3.3471
 Frc consts  --      0.7353                 1.4421                 2.4611
 IR Inten    --      4.0510               137.2852               360.3408

                     13                     14                     15
                      A                      A                      A
 Frequencies --   1134.4746              1256.2203              1334.6782
 Red. masses --      2.1509                 4.4278                 1.2443
 Frc consts  --      1.6310                 4.1169                 1.3060
 IR Inten    --    121.5223               287.8305                15.1694

                     16                     17                     18
                      A                      A                      A
 Frequencies --   1481.4702              1484.7500              3086.4699
 Red. masses --      1.0542                 1.0543                 1.0293
 Frc consts  --      1.3632                 1.3693                 5.7771
 IR Inten    --      1.2159                 1.8352                24.0647

                     19                     20                     21
                      A                      A                      A
 Frequencies --   3182.8374              3193.6370              3500.8585
 Red. masses --      1.1056                 1.1057                 1.0730
 Frc consts  --      6.5991                 6.6446                 7.7485
 IR Inten    --     22.0787                16.4398                 3.6612

 - Thermochemistry -
 -------------------
 Temperature   298.150 Kelvin.  Pressure   1.00000 Atm.
 Atom     1 has atomic number 16 and mass  31.97207

 Molecular mass:    93.99628 amu.
 Principal axes and moments of inertia in atomic units:
                           1         2         3
     Eigenvalues --   371.54175 400.85587 410.40348
           X            0.99471   0.01576   0.10155
           Y            0.05087   0.78309  -0.61982
           Z           -0.08929   0.62171   0.77814
 This molecule is an asymmetric top.
 Rotational symmetry number  1.
 Rotational temperatures (Kelvin)      0.23312     0.21607     0.21105
 Rotational constants (GHZ):           4.85744     4.50222     4.39748
 Zero-point vibrational energy     162010.9 (Joules/Mol)
                                   38.72153 (Kcal/Mol)
 Warning -- explicit consideration of   7 degrees of freedom as
           vibrations may cause significant error
 Vibrational temperatures:    356.45   414.68   430.75   546.48   683.19
          (Kelvin)            709.08   747.66  1058.70  1354.67  1380.89
                             1401.29  1607.29  1632.26  1807.42  1920.30
                             2131.51  2136.22  4440.74  4579.39  4594.93
                             5036.95

 Zero-point correction=                           0.061707 (Hartree/Particle)
 Thermal correction to Energy=                    0.067205
 Thermal correction to Enthalpy=                  0.068149
 Thermal correction to Gibbs Free Energy=         0.033158
 Sum of electronic and zero-point Energies=           -643.684692
 Sum of electronic and thermal Energies=              -643.679194
 Sum of electronic and thermal Enthalpies=            -643.678250
 Sum of electronic and thermal Free Energies=         -643.713241

                     E (Thermal)             CV                S
                      KCal/Mol        Cal/Mol-Kelvin    Cal/Mol-Kelvin
 Total                   42.172             19.408             73.645
 Electronic               0.000              0.000              0.000
 Translational            0.889              2.981             39.533
 Rotational               0.889              2.981             25.617
 Vibrational             40.394             13.446              8.495
 Vibration     1          0.661              1.767              1.747
 Vibration     2          0.685              1.696              1.484
 Vibration     3          0.692              1.675              1.420
 Vibration     4          0.750              1.513              1.040
 Vibration     5          0.832              1.306              0.724
 Vibration     6          0.849              1.266              0.676
 Vibration     7          0.875              1.206              0.611

 Optimization completed.
    -- Stationary point found.
 Normal termination of Gaussian 16 at Fri May 20 19:52:17 2022.
