 Gaussian 16, Revision C.01,
 Gaussian 16:  ES64L-G16RevC.01  3-Jul-2019

 --------------------------------------------------
 #M062X/gen 6D INT(grid=ultrafine) OPT Freq=noraman
 --------------------------------------------------

 ----------------
 A.18.a2b2f2.freq
 ----------------
 Symbolic Z-matrix:
 Charge = -1 Multiplicity = 1

 SCF Done:  E(RM062X) =  -1861.04924750     A.U. after   17 cycles
 SCF Done:  E(RM062X) =  -1861.05250402     A.U. after   14 cycles
 SCF Done:  E(RM062X) =  -1861.05327188     A.U. after   13 cycles
 SCF Done:  E(RM062X) =  -1861.05342590     A.U. after   14 cycles
 SCF Done:  E(RM062X) =  -1861.05347743     A.U. after   13 cycles
 SCF Done:  E(RM062X) =  -1861.05349771     A.U. after   12 cycles
 SCF Done:  E(RM062X) =  -1861.05350853     A.U. after   12 cycles
 SCF Done:  E(RM062X) =  -1861.05351058     A.U. after   11 cycles
 SCF Done:  E(RM062X) =  -1861.05351104     A.U. after   11 cycles
 SCF Done:  E(RM062X) =  -1861.05351105     A.U. after   11 cycles
 SCF Done:  E(RM062X) =  -1861.05351091     A.U. after   11 cycles
 SCF Done:  E(RM062X) =  -1861.05351062     A.U. after   11 cycles
 SCF Done:  E(RM062X) =  -1861.05351020     A.U. after   12 cycles
 SCF Done:  E(RM062X) =  -1861.05351110     A.U. after   13 cycles
 SCF Done:  E(RM062X) =  -1861.05351021     A.U. after   13 cycles
 Optimization completed.
    -- Stationary point found.
 Normal termination of Gaussian 16 at Fri May 27 10:25:58 2022.

 ------------------------------------------------------------------
 #N Geom=AllCheck Guess=TCheck SCRF=Check GenChk RM062X/ChkBas Freq
 ------------------------------------------------------------------

 Structure from the checkpoint file:  "/jobfs/41454602.gadi-pbs/Gau-3100320.chk"
 ----------------
 A.18.a2b2f2.freq
 ----------------
 Charge = -1 Multiplicity = 1

                         Standard orientation:
 ---------------------------------------------------------------------
 Center     Atomic      Atomic             Coordinates (Angstroms)
 Number     Number       Type             X           Y           Z
 ---------------------------------------------------------------------
      1          6           0       -3.266992   -0.114407   -0.383180
      2         16           0       -4.725081   -1.190255   -0.204317
      3          8           0       -4.398832   -2.308904   -1.097803
      4          8           0       -4.650309   -1.441261    1.253721
      5          7           0       -5.970931   -0.402349   -0.698505
      6          1           0       -6.275052    0.180557    0.083665
      7          8           0       -2.928629    0.324875   -1.628729
      8          6           0       -1.854643    1.118763   -1.514881
      9          6           0       -1.498408    1.210952   -0.202119
     10          6           0       -2.417476    0.403376    0.544576
     11         16           0       -0.101507    2.081865    0.376253
     12          6           0        1.081709    0.801267    0.749079
     13          8           0       -0.433285    2.729802    1.645520
     14          8           0        0.438115    2.857245   -0.745384
     15          6           0        1.085889    0.224773    2.013254
     16          6           0        1.978525   -0.807475    2.280750
     17          6           0        2.857819   -1.245495    1.289441
     18          6           0        2.866764   -0.655241    0.015411
     19          6           0        1.958334    0.365746   -0.241486
     20          8           0        3.732105   -2.266337    1.505587
     21          6           0        3.849075   -1.128177   -1.024100
     22          7           0        5.198773   -0.621329   -0.786512
     23          6           0        5.268916    0.816967   -0.976569
     24          6           0        6.148765   -1.298296   -1.648204
     25          1           0       -1.448148    1.554449   -2.414788
     26          1           0       -2.460183    0.228097    1.608954
     27          1           0        0.400824    0.586020    2.774356
     28          1           0        1.990090   -1.278376    3.261460
     29          1           0        1.934042    0.840968   -1.220079
     30          1           0        3.583859   -2.638513    2.386227
     31          1           0        3.486477   -0.830420   -2.028123
     32          1           0        3.897268   -2.221905   -1.000401
     33          1           0        4.586569    1.323632   -0.289594
     34          1           0        5.005395    1.114688   -2.011255
     35          1           0        6.286106    1.161394   -0.766701
     36          1           0        6.121286   -2.374817   -1.454253
     37          1           0        7.159387   -0.935299   -1.436710
     38          1           0        5.939603   -1.130394   -2.723763
 ---------------------------------------------------------------------

 SCF Done:  E(RM062X) =  -1861.05351021     A.U. after    1 cycles

 The electronic state is 1-A.
 Alpha  occ. eigenvalues --  -90.06320 -89.99083 -19.62961 -19.62638 -19.55447
 Alpha  occ. eigenvalues --  -19.55306 -19.46890 -19.46627 -14.70111 -14.57256
 Alpha  occ. eigenvalues --  -10.56914 -10.52914 -10.51951 -10.51213 -10.51100
 Alpha  occ. eigenvalues --  -10.50935 -10.50726 -10.50558 -10.50524 -10.50515
 Alpha  occ. eigenvalues --  -10.50329 -10.48679 -10.45763  -8.37551  -8.29824
 Alpha  occ. eigenvalues --   -6.29734  -6.29680  -6.29634  -6.22037  -6.22031
 Alpha  occ. eigenvalues --   -6.21912  -1.15638  -1.14354  -1.14115  -1.06168
 Alpha  occ. eigenvalues --   -1.03688  -0.98198  -0.94583  -0.91377  -0.83565
 Alpha  occ. eigenvalues --   -0.82003  -0.81668  -0.79799  -0.76183  -0.74475
 Alpha  occ. eigenvalues --   -0.73485  -0.70232  -0.66016  -0.64104  -0.61056
 Alpha  occ. eigenvalues --   -0.59313  -0.57761  -0.56879  -0.54838  -0.51975
 Alpha  occ. eigenvalues --   -0.50647  -0.50010  -0.49261  -0.47966  -0.47705
 Alpha  occ. eigenvalues --   -0.45667  -0.45372  -0.44906  -0.44747  -0.43966
 Alpha  occ. eigenvalues --   -0.43201  -0.43051  -0.41054  -0.40444  -0.40026
 Alpha  occ. eigenvalues --   -0.39952  -0.38460  -0.38254  -0.37387  -0.36836
 Alpha  occ. eigenvalues --   -0.36730  -0.36142  -0.35831  -0.34366  -0.32014
 Alpha  occ. eigenvalues --   -0.31322  -0.29387  -0.27758  -0.27213  -0.26284
 Alpha  occ. eigenvalues --   -0.25526  -0.23814  -0.23077  -0.22526  -0.22401
 Alpha  occ. eigenvalues --   -0.20933  -0.19476  -0.17594  -0.14768
 Alpha virt. eigenvalues --    0.06062   0.06650   0.06953   0.07409   0.08737
 Alpha virt. eigenvalues --    0.09143   0.09422   0.10504   0.11243   0.11517
 Alpha virt. eigenvalues --    0.11967   0.12446   0.12682   0.13050   0.13605

 Mulliken charges:
               1
     1  C   -1.286340
     2  S    1.772473
     3  O   -0.591433
     4  O   -0.661084
     5  N   -0.785824
     6  H    0.340097
     7  O   -0.175863
     8  C   -0.069594
     9  C   -0.754895
    10  C    0.787166
    11  S    0.828194
    12  C   -0.238300
    13  O   -0.408867
    14  O   -0.472212
    15  C   -0.393851
    16  C   -0.163239
    17  C   -0.374899
    18  C    0.206687
    19  C    0.186174
    20  O   -0.661534
    21  C   -0.225760
    22  N   -0.233619
    23  C   -0.532673
    24  C   -0.487684
    25  H    0.240724
    26  H    0.258803
    27  H    0.256336
    28  H    0.194220
    29  H    0.253496
    30  H    0.509730
    31  H    0.207715
    32  H    0.223016
    33  H    0.244980
    34  H    0.199516
    35  H    0.200678
    36  H    0.207918
    37  H    0.201774
    38  H    0.197973
 Sum of Mulliken charges =  -1.00000

 Dipole moment (field-independent basis, Debye):
    X=             20.3784    Y=              1.1502    Z=              2.1820  Tot=             20.5271
 Quadrupole moment (field-independent basis, Debye-Ang):
   XX=           -263.8739   YY=           -183.8411   ZZ=           -152.9357
   XY=            -36.2430   XZ=            -10.7815   YZ=            -11.3883

  Exact polarizability:     279.304      -9.317     201.744      -4.364      -9.908     212.612
 Approx polarizability:     277.485     -16.782     256.845      -3.353     -13.286     299.905

                      1                      2                      3
                      A                      A                      A
 Frequencies --     10.8353                21.9055                24.2038
 Red. masses --      5.5393                 6.6716                 7.9671
 Frc consts  --      0.0004                 0.0019                 0.0027
 IR Inten    --      1.6811                 4.2476                 0.3042

                      4                      5                      6
                      A                      A                      A
 Frequencies --     46.2518                49.9342                58.1198
 Red. masses --      4.5256                 5.6137                 2.9458
 Frc consts  --      0.0057                 0.0082                 0.0059
 IR Inten    --      2.3418                 0.6591                 1.6125

                      7                      8                      9
                      A                      A                      A
 Frequencies --     91.2708                94.4575                99.8566
 Red. masses --      4.1000                 9.7643                 5.6667
 Frc consts  --      0.0201                 0.0513                 0.0333
 IR Inten    --      2.1418                 4.4021                 1.3594

                     10                     11                     12
                      A                      A                      A
 Frequencies --    129.8521               152.8190               183.4034
 Red. masses --      6.8863                 6.0710                 9.2869
 Frc consts  --      0.0684                 0.0835                 0.1841
 IR Inten    --      0.7747                 0.8005                 0.8355

                     13                     14                     15
                      A                      A                      A
 Frequencies --    210.1909               224.9881               250.1462
 Red. masses --      5.8096                12.8070                 2.5873
 Frc consts  --      0.1512                 0.3820                 0.0954
 IR Inten    --      2.8237                 0.6582                 0.7987

                     16                     17                     18
                      A                      A                      A
 Frequencies --    258.6452               271.1598               289.6108
 Red. masses --      1.2853                 2.2235                 2.8551
 Frc consts  --      0.0507                 0.0963                 0.1411
 IR Inten    --      0.1060                 1.1870                 0.8128

                     19                     20                     21
                      A                      A                      A
 Frequencies --    303.6706               315.5705               327.7160
 Red. masses --      5.6271                 2.6227                 2.2166
 Frc consts  --      0.3057                 0.1539                 0.1403
 IR Inten    --      1.7161                25.7363                26.5756

                     22                     23                     24
                      A                      A                      A
 Frequencies --    345.5493               354.7179               366.7732
 Red. masses --      1.5111                 3.9672                 4.5091
 Frc consts  --      0.1063                 0.2941                 0.3574
 IR Inten    --     53.2643                19.2861                 2.3291

                     25                     26                     27
                      A                      A                      A
 Frequencies --    388.0906               398.7948               406.8474
 Red. masses --      5.6750                 7.6159                 2.0680
 Frc consts  --      0.5036                 0.7136                 0.2017
 IR Inten    --      2.6606                12.6771                 9.7508

                     28                     29                     30
                      A                      A                      A
 Frequencies --    440.1279               446.4105               469.7241
 Red. masses --      3.6499                 2.4469                 2.9413
 Frc consts  --      0.4166                 0.2873                 0.3824
 IR Inten    --     34.4693                 0.7169                12.0807

                     31                     32                     33
                      A                      A                      A
 Frequencies --    491.6620               504.8540               514.0047
 Red. masses --      3.3507                 2.0817                 3.9145
 Frc consts  --      0.4772                 0.3126                 0.6093
 IR Inten    --      2.6117                72.9677                 7.8117

                     34                     35                     36
                      A                      A                      A
 Frequencies --    518.0269               542.5782               557.6497
 Red. masses --      8.4357                 9.8001                 4.5699
 Frc consts  --      1.3338                 1.6998                 0.8373
 IR Inten    --     31.3864                37.0844                31.8010

                     37                     38                     39
                      A                      A                      A
 Frequencies --    615.2771               623.3200               634.3603
 Red. masses --     17.3956                 4.6871                 5.0316
 Frc consts  --      3.8800                 1.0730                 1.1930
 IR Inten    --    241.5486                89.1490                94.6047

                     40                     41                     42
                      A                      A                      A
 Frequencies --    656.3203               688.8834               701.3306
 Red. masses --      5.9720                 5.9017                 6.9513
 Frc consts  --      1.5156                 1.6501                 2.0145
 IR Inten    --     72.9804                 4.1296               144.0592

                     43                     44                     45
                      A                      A                      A
 Frequencies --    755.7750               809.5343               812.3587
 Red. masses --      4.2807                 3.1849                 1.5257
 Frc consts  --      1.4406                 1.2297                 0.5932
 IR Inten    --      7.9051                 4.9883                 0.0488

                     46                     47                     48
                      A                      A                      A
 Frequencies --    836.0946               841.0622               884.4355
 Red. masses --      1.4510                 1.4663                 3.6726
 Frc consts  --      0.5976                 0.6111                 1.6926
 IR Inten    --     22.7555                28.0824                18.6739

                     49                     50                     51
                      A                      A                      A
 Frequencies --    927.4193               939.0053               952.4118
 Red. masses --      4.8523                 6.7271                 1.4692
 Frc consts  --      2.4590                 3.4947                 0.7852
 IR Inten    --     44.2633                35.1184                 8.1504

                     52                     53                     54
                      A                      A                      A
 Frequencies --    971.1963               979.4086               982.1429
 Red. masses --      5.6893                 2.2805                 2.5444
 Frc consts  --      3.1617                 1.2889                 1.4460
 IR Inten    --     47.8789               101.6397                69.9236

                     55                     56                     57
                      A                      A                      A
 Frequencies --   1000.1226              1073.0689              1078.0087
 Red. masses --      1.7743                 2.0658                 1.5250
 Frc consts  --      1.0456                 1.4015                 1.0441
 IR Inten    --      4.6759                39.4603               113.7603

                     58                     59                     60
                      A                      A                      A
 Frequencies --   1081.9475              1117.9688              1125.1845
 Red. masses --      1.4625                 2.8206                 1.5626
 Frc consts  --      1.0087                 2.0771                 1.1656
 IR Inten    --      8.5293               116.1097               141.4268

                     61                     62                     63
                      A                      A                      A
 Frequencies --   1130.9597              1138.4810              1163.6798
 Red. masses --      1.2711                 2.5795                 2.1098
 Frc consts  --      0.9579                 1.9698                 1.6833
 IR Inten    --     12.9949               270.5598                52.8891

                     64                     65                     66
                      A                      A                      A
 Frequencies --   1165.5358              1183.2990              1190.3308
 Red. masses --      5.4742                 1.4072                 1.6054
 Frc consts  --      4.3815                 1.1609                 1.3402
 IR Inten    --    186.9685                 3.4515                22.3435

                     67                     68                     69
                      A                      A                      A
 Frequencies --   1195.6976              1224.3097              1228.0232
 Red. masses --      1.3325                 5.9600                 1.7844
 Frc consts  --      1.1224                 5.2635                 1.5855
 IR Inten    --      5.0924                27.2790                21.2289

                     70                     71                     72
                      A                      A                      A
 Frequencies --   1257.3059              1286.5021              1289.3393
 Red. masses --      2.1299                 7.1220                 5.4325
 Frc consts  --      1.9838                 6.9450                 5.3209
 IR Inten    --     40.4352               215.8583                23.4401

                     73                     74                     75
                      A                      A                      A
 Frequencies --   1304.0286              1320.4167              1325.1026
 Red. masses --      2.1733                 2.6581                 5.3806
 Frc consts  --      2.1774                 2.7305                 5.5665
 IR Inten    --     17.4508                28.0542               182.4980

                     76                     77                     78
                      A                      A                      A
 Frequencies --   1328.7157              1343.3280              1379.3979
 Red. masses --      3.7918                 1.4639                 3.5316
 Frc consts  --      3.9442                 1.5564                 3.9591
 IR Inten    --    124.6508                 7.0390                61.1244

                     79                     80                     81
                      A                      A                      A
 Frequencies --   1404.7785              1416.1350              1455.4837
 Red. masses --      4.9092                 1.5514                 1.1765
 Frc consts  --      5.7079                 1.8330                 1.4684
 IR Inten    --      1.1908                29.5550                 2.0488

                     82                     83                     84
                      A                      A                      A
 Frequencies --   1479.1878              1489.6954              1506.4827
 Red. masses --      2.2026                 1.5903                 1.0841
 Frc consts  --      2.8394                 2.0793                 1.4495
 IR Inten    --     32.1773                12.4533                 4.2164

                     85                     86                     87
                      A                      A                      A
 Frequencies --   1509.2024              1519.8590              1524.9803
 Red. masses --      1.0614                 1.0742                 1.0463
 Frc consts  --      1.4244                 1.4620                 1.4337
 IR Inten    --      4.4318                12.7471                13.5158

                     88                     89                     90
                      A                      A                      A
 Frequencies --   1534.0560              1557.9949              1559.7181
 Red. masses --      1.0573                 3.5042                 5.6149
 Frc consts  --      1.4659                 5.0115                 8.0479
 IR Inten    --     15.7816                91.1989                38.8446

                     91                     92                     93
                      A                      A                      A
 Frequencies --   1623.4369              1677.9490              1694.2466
 Red. masses --      6.6392                 6.6306                 7.1768
 Frc consts  --     10.3095                10.9992                12.1376
 IR Inten    --     37.8146                44.1915                41.2675

                     94                     95                     96
                      A                      A                      A
 Frequencies --   2956.4345              2959.8306              2966.2934
 Red. masses --      1.0613                 1.0676                 1.0643
 Frc consts  --      5.4657                 5.5107                 5.5174
 IR Inten    --     48.4154                28.6793               180.0758

                     97                     98                     99
                      A                      A                      A
 Frequencies --   3107.9024              3117.7080              3120.0796
 Red. masses --      1.0706                 1.0838                 1.0762
 Frc consts  --      6.0926                 6.2071                 6.1730
 IR Inten    --     39.0550                24.4033                25.2711

                    100                    101                    102
                      A                      A                      A
 Frequencies --   3154.4236              3170.0323              3203.3196
 Red. masses --      1.1039                 1.1021                 1.0905
 Frc consts  --      6.4718                 6.5250                 6.5926
 IR Inten    --     28.3402                22.1933                16.5165

                    103                    104                    105
                      A                      A                      A
 Frequencies --   3219.5947              3245.9880              3325.6661
 Red. masses --      1.0912                 1.0934                 1.0975
 Frc consts  --      6.6641                 6.7876                 7.1519
 IR Inten    --      1.8860                 1.9255                 3.6205

                    106                    107                    108
                      A                      A                      A
 Frequencies --   3331.2229              3511.8372              3824.2085
 Red. masses --      1.0991                 1.0732                 1.0663
 Frc consts  --      7.1859                 7.7982                 9.1879
 IR Inten    --      2.4485                 7.5334                75.0981

 - Thermochemistry -
 -------------------
 Temperature   298.150 Kelvin.  Pressure   1.00000 Atm.
 Atom     1 has atomic number  6 and mass  12.00000

 Molecular mass:   359.03716 amu.
 Principal axes and moments of inertia in atomic units:
                           1         2         3
     Eigenvalues --  4547.19803********************
           X            0.99988  -0.00963  -0.01239
           Y            0.00945   0.99986  -0.01409
           Z            0.01252   0.01397   0.99982
 This molecule is an asymmetric top.
 Rotational symmetry number  1.
 Warning -- assumption of classical behavior for rotation
           may cause significant error
 Rotational temperatures (Kelvin)      0.01905     0.00490     0.00461
 Rotational constants (GHZ):           0.39689     0.10217     0.09609
 Zero-point vibrational energy     746884.0 (Joules/Mol)
                                  178.50957 (Kcal/Mol)
 Warning -- explicit consideration of  37 degrees of freedom as
           vibrations may cause significant error
 Vibrational temperatures:     15.59    31.52    34.82    66.55    71.84
          (Kelvin)             83.62   131.32   135.90   143.67   186.83
                              219.87   263.88   302.42   323.71   359.90
                              372.13   390.14   416.69   436.91   454.04
                              471.51   497.17   510.36   527.70   558.38
                              573.78   585.36   633.25   642.29   675.83
                              707.39   726.37   739.54   745.33   780.65
                              802.33   885.25   896.82   912.70   944.30
                              991.15  1009.06  1087.39  1164.74  1168.80
                             1202.95  1210.10  1272.51  1334.35  1351.02
                             1370.31  1397.33  1409.15  1413.08  1438.95
                             1543.91  1551.01  1556.68  1608.51  1618.89
                             1627.20  1638.02  1674.28  1676.95  1702.50
                             1712.62  1720.34  1761.51  1766.85  1808.98
                             1850.99  1855.07  1876.21  1899.79  1906.53
                             1911.73  1932.75  1984.65  2021.16  2037.50
                             2094.12  2128.22  2143.34  2167.49  2171.41
                             2186.74  2194.11  2207.16  2241.61  2244.09
                             2335.76  2414.19  2437.64  4253.65  4258.54
                             4267.83  4471.58  4485.69  4489.10  4538.51
                             4560.97  4608.86  4632.28  4670.25  4784.89
                             4792.89  5052.75  5502.18

 Zero-point correction=                           0.284473 (Hartree/Particle)
 Thermal correction to Energy=                    0.306798
 Thermal correction to Enthalpy=                  0.307742
 Thermal correction to Gibbs Free Energy=         0.229519
 Sum of electronic and zero-point Energies=          -1860.769037
 Sum of electronic and thermal Energies=             -1860.746712
 Sum of electronic and thermal Enthalpies=           -1860.745768
 Sum of electronic and thermal Free Energies=        -1860.823991

                     E (Thermal)             CV                S
                      KCal/Mol        Cal/Mol-Kelvin    Cal/Mol-Kelvin
 Total                  192.519             83.158            164.634
 Electronic               0.000              0.000              0.000
 Translational            0.889              2.981             43.528
 Rotational               0.889              2.981             35.666
 Vibrational            190.741             77.196             85.441
 Vibration     1          0.593              1.987              7.852
 Vibration     2          0.593              1.985              6.454
 Vibration     3          0.593              1.985              6.255
 Vibration     4          0.595              1.979              4.972
 Vibration     5          0.595              1.978              4.820
 Vibration     6          0.596              1.974              4.520
 Vibration     7          0.602              1.955              3.633
 Vibration     8          0.603              1.953              3.566
 Vibration     9          0.604              1.949              3.457
 Vibration    10          0.612              1.923              2.948
 Vibration    11          0.619              1.900              2.637
 Vibration    12          0.631              1.862              2.293
 Vibration    13          0.642              1.825              2.042
 Vibration    14          0.650              1.803              1.919
 Vibration    15          0.663              1.763              1.730
 Vibration    16          0.667              1.748              1.671
 Vibration    17          0.675              1.726              1.589
 Vibration    18          0.686              1.693              1.476
 Vibration    19          0.695              1.667              1.397
 Vibration    20          0.703              1.644              1.333
 Vibration    21          0.711              1.620              1.271
 Vibration    22          0.724              1.584              1.186
 Vibration    23          0.731              1.566              1.145
 Vibration    24          0.740              1.541              1.093
 Vibration    25          0.756              1.496              1.007
 Vibration    26          0.765              1.473              0.967
 Vibration    27          0.772              1.455              0.938
 Vibration    28          0.800              1.383              0.826
 Vibration    29          0.806              1.369              0.807
 Vibration    30          0.827              1.317              0.738
 Vibration    31          0.847              1.269              0.679
 Vibration    32          0.860              1.239              0.646
 Vibration    33          0.869              1.219              0.624
 Vibration    34          0.873              1.210              0.615
 Vibration    35          0.898              1.156              0.560
 Vibration    36          0.913              1.123              0.529
 Vibration    37          0.975              1.000              0.424

 Optimization completed.
    -- Stationary point found.
 Normal termination of Gaussian 16 at Fri May 27 10:51:48 2022.
