 Gaussian 16, Revision C.01,
 Gaussian 16:  ES64L-G16RevC.01  3-Jul-2019

 --------------------------------------------------
 #M062X/gen 6D INT(grid=ultrafine) OPT Freq=noraman
 --------------------------------------------------

 --------------
 A.19.a1b2.freq
 --------------
 Symbolic Z-matrix:
 Charge = -1 Multiplicity = 1

 SCF Done:  E(RM062X) =  -1633.31603460     A.U. after   16 cycles
 SCF Done:  E(RM062X) =  -1633.31871166     A.U. after   14 cycles
 SCF Done:  E(RM062X) =  -1633.31945548     A.U. after   13 cycles
 SCF Done:  E(RM062X) =  -1633.31958781     A.U. after   12 cycles
 SCF Done:  E(RM062X) =  -1633.31964691     A.U. after   12 cycles
 SCF Done:  E(RM062X) =  -1633.31968080     A.U. after   12 cycles
 SCF Done:  E(RM062X) =  -1633.31968968     A.U. after   12 cycles
 SCF Done:  E(RM062X) =  -1633.31969152     A.U. after   11 cycles
 SCF Done:  E(RM062X) =  -1633.31969156     A.U. after   11 cycles
 Optimization completed.
    -- Stationary point found.
 Normal termination of Gaussian 16 at Fri May 27 10:10:37 2022.

 ------------------------------------------------------------------
 #N Geom=AllCheck Guess=TCheck SCRF=Check GenChk RM062X/ChkBas Freq
 ------------------------------------------------------------------

 Structure from the checkpoint file:  "/jobfs/41454891.gadi-pbs/Gau-438467.chk"
 --------------
 A.19.a1b2.freq
 --------------
 Charge = -1 Multiplicity = 1

                         Standard orientation:
 ---------------------------------------------------------------------
 Center     Atomic      Atomic             Coordinates (Angstroms)
 Number     Number       Type             X           Y           Z
 ---------------------------------------------------------------------
      1          6           0        2.994834   -0.053467    0.176101
      2         16           0        4.739034    0.438726    0.054057
      3          8           0        4.660965    1.902883   -0.037815
      4          8           0        5.235759   -0.134582    1.328097
      5          7           0        5.330026   -0.185212   -1.244773
      6          1           0        5.575819   -1.149855   -1.013494
      7          6           0        2.352444   -0.830390    1.090759
      8          6           0        0.988115   -0.932141    0.634633
      9          6           0        0.960025   -0.198274   -0.526106
     10          8           0        2.142322    0.346049   -0.831963
     11          6           0       -0.312929   -1.461565    0.926468
     12          6           0       -1.242877   -1.113114   -0.010983
     13         16           0       -0.585012   -0.100471   -1.293992
     14          1           0        2.825241   -1.247870    1.967053
     15          1           0       -0.562723   -2.074063    1.787340
     16          6           0       -2.687020   -1.502357   -0.054818
     17          7           0       -3.577194   -0.353625   -0.191410
     18          6           0       -3.477916    0.558529    0.942097
     19          6           0       -4.394092    1.750234    0.717629
     20          8           0       -5.739286    1.339456    0.532453
     21          6           0       -5.843481    0.453077   -0.563761
     22          6           0       -4.959412   -0.770172   -0.367546
     23          1           0       -2.910022   -2.078834    0.865809
     24          1           0       -2.885796   -2.164817   -0.907997
     25          1           0       -2.441476    0.896928    1.038970
     26          1           0       -3.763172    0.047219    1.883811
     27          1           0       -4.053607    2.310773   -0.166624
     28          1           0       -4.389877    2.413627    1.585785
     29          1           0       -5.547386    0.970469   -1.490067
     30          1           0       -6.896152    0.165809   -0.634294
     31          1           0       -5.026938   -1.420304   -1.248124
     32          1           0       -5.322312   -1.341919    0.511061
 ---------------------------------------------------------------------

 SCF Done:  E(RM062X) =  -1633.31969156     A.U. after    1 cycles

 The electronic state is 1-A.
 Alpha  occ. eigenvalues --  -89.98126 -89.86924 -19.61071 -19.59144 -19.45977
 Alpha  occ. eigenvalues --  -19.45676 -14.70037 -14.56342 -10.53845 -10.53263
 Alpha  occ. eigenvalues --  -10.52633 -10.51997 -10.51706 -10.50674 -10.50030
 Alpha  occ. eigenvalues --  -10.49081 -10.47762 -10.45622 -10.44163  -8.28869
 Alpha  occ. eigenvalues --   -8.21279  -6.21085  -6.21071  -6.20959  -6.13296
 Alpha  occ. eigenvalues --   -6.13104  -6.12792  -1.13948  -1.10881  -1.05173
 Alpha  occ. eigenvalues --   -0.98221  -0.93607  -0.89176  -0.81524  -0.80680
 Alpha  occ. eigenvalues --   -0.79880  -0.77849  -0.72886  -0.70969  -0.68627
 Alpha  occ. eigenvalues --   -0.66814  -0.59501  -0.58123  -0.55930  -0.54532
 Alpha  occ. eigenvalues --   -0.52015  -0.50451  -0.49117  -0.48529  -0.47940
 Alpha  occ. eigenvalues --   -0.47536  -0.45892  -0.44227  -0.43423  -0.42299
 Alpha  occ. eigenvalues --   -0.41908  -0.39576  -0.39349  -0.38415  -0.36861
 Alpha  occ. eigenvalues --   -0.36346  -0.36215  -0.35598  -0.34686  -0.33365
 Alpha  occ. eigenvalues --   -0.32573  -0.31803  -0.31014  -0.27112  -0.26348
 Alpha  occ. eigenvalues --   -0.25063  -0.22876  -0.22649  -0.21590  -0.19871
 Alpha  occ. eigenvalues --   -0.19086  -0.17185  -0.16598  -0.13357
 Alpha virt. eigenvalues --    0.07717   0.08297   0.08790   0.09454   0.10141
 Alpha virt. eigenvalues --    0.10439   0.11389   0.11954   0.12232   0.12506
 Alpha virt. eigenvalues --    0.12870   0.13835   0.14474   0.14731   0.14990

 Mulliken charges:
               1
     1  C   -1.103737
     2  S    1.806923
     3  O   -0.587994
     4  O   -0.640991
     5  N   -0.783073
     6  H    0.334368
     7  C   -0.084869
     8  C    0.565637
     9  C   -0.868042
    10  O   -0.197849
    11  C    0.014712
    12  C    0.071576
    13  S    0.455148
    14  H    0.242050
    15  H    0.205913
    16  C   -0.650564
    17  N   -0.381361
    18  C   -0.177083
    19  C   -0.422632
    20  O   -0.354775
    21  C   -0.381878
    22  C   -0.174923
    23  H    0.207527
    24  H    0.216665
    25  H    0.257480
    26  H    0.206847
    27  H    0.209884
    28  H    0.203924
    29  H    0.203979
    30  H    0.196478
    31  H    0.200408
    32  H    0.210255
 Sum of Mulliken charges =  -1.00000

 Dipole moment (field-independent basis, Debye):
    X=            -20.5664    Y=             -4.9465    Z=              1.0199  Tot=             21.1774
 Quadrupole moment (field-independent basis, Debye-Ang):
   XX=           -256.6313   YY=           -135.7299   ZZ=           -138.6775
   XY=            -11.9766   XZ=              7.6770   YZ=             -0.0113

  Exact polarizability:     277.092      11.573     159.808       4.044     -10.578     169.487
 Approx polarizability:     267.598      14.557     210.833       5.833     -26.228     240.285

                      1                      2                      3
                      A                      A                      A
 Frequencies --     24.6872                28.3194                43.9077
 Red. masses --      8.0269                 7.9055                 6.0372
 Frc consts  --      0.0029                 0.0037                 0.0069
 IR Inten    --      0.3237                 2.5970                 0.8896

                      4                      5                      6
                      A                      A                      A
 Frequencies --     61.5430                69.5875               108.2881
 Red. masses --      3.6617                 7.2084                 7.8961
 Frc consts  --      0.0082                 0.0206                 0.0546
 IR Inten    --      0.1270                 0.1573                 1.1109

                      7                      8                      9
                      A                      A                      A
 Frequencies --    146.5058               159.9662               205.5573
 Red. masses --      6.9098                 5.1088                 8.4666
 Frc consts  --      0.0874                 0.0770                 0.2108
 IR Inten    --      2.4053                 4.4987                 1.2405

                     10                     11                     12
                      A                      A                      A
 Frequencies --    217.3984               267.4419               273.9939
 Red. masses --      6.1622                 2.4346                 3.5785
 Frc consts  --      0.1716                 0.1026                 0.1583
 IR Inten    --      2.1276                 0.9821                 0.9919

                     13                     14                     15
                      A                      A                      A
 Frequencies --    300.6758               315.6382               328.8496
 Red. masses --      3.8641                 4.3714                 3.9065
 Frc consts  --      0.2058                 0.2566                 0.2489
 IR Inten    --      3.4565                11.6090                 6.6318

                     16                     17                     18
                      A                      A                      A
 Frequencies --    334.0200               357.1059               427.5742
 Red. masses --      7.2407                 2.1997                 2.8038
 Frc consts  --      0.4760                 0.1653                 0.3020
 IR Inten    --      1.4373                11.5638                34.1319

                     19                     20                     21
                      A                      A                      A
 Frequencies --    441.1233               465.9562               480.6222
 Red. masses --      1.8761                 4.8296                 4.4183
 Frc consts  --      0.2151                 0.6178                 0.6013
 IR Inten    --      0.6378                 8.5892                20.6399

                     22                     23                     24
                      A                      A                      A
 Frequencies --    496.4383               498.9477               518.4262
 Red. masses --      2.7727                 2.5426                 4.9899
 Frc consts  --      0.4026                 0.3729                 0.7902
 IR Inten    --     11.3274                53.5119                10.9236

                     25                     26                     27
                      A                      A                      A
 Frequencies --    528.3168               576.0070               605.6331
 Red. masses --      7.2569                 9.7642                 6.3738
 Frc consts  --      1.1934                 1.9087                 1.3774
 IR Inten    --      4.2328                62.5129               140.8084

                     28                     29                     30
                      A                      A                      A
 Frequencies --    634.8907               665.6409               670.8335
 Red. masses --      2.3734                 4.8266                 5.9065
 Frc consts  --      0.5637                 1.2600                 1.5661
 IR Inten    --     22.5008                51.8632                36.3005

                     31                     32                     33
                      A                      A                      A
 Frequencies --    680.0373               685.4296               809.6118
 Red. masses --      4.3232                 6.7745                 5.2609
 Frc consts  --      1.1779                 1.8752                 2.0317
 IR Inten    --      7.0464                 1.3118                37.1743

                     34                     35                     36
                      A                      A                      A
 Frequencies --    826.6517               832.0918               861.0506
 Red. masses --      2.0443                 1.5741                 1.5424
 Frc consts  --      0.8231                 0.6421                 0.6738
 IR Inten    --      9.1672                15.5166                23.3847

                     37                     38                     39
                      A                      A                      A
 Frequencies --    879.4445               912.2536               943.7141
 Red. masses --      1.5612                 2.8171                 2.1349
 Frc consts  --      0.7114                 1.3813                 1.1202
 IR Inten    --      0.1309                34.0710                20.8128

                     40                     41                     42
                      A                      A                      A
 Frequencies --    945.3975               975.7250              1015.1352
 Red. masses --      9.7546                13.2092                 1.7331
 Frc consts  --      5.1368                 7.4094                 1.0523
 IR Inten    --     35.1535               281.0159                 3.6342

                     43                     44                     45
                      A                      A                      A
 Frequencies --   1050.1287              1065.2989              1088.4788
 Red. masses --      2.6502                 2.0444                 1.8359
 Frc consts  --      1.7220                 1.3669                 1.2816
 IR Inten    --     33.7554                 8.8753                25.1307

                     46                     47                     48
                      A                      A                      A
 Frequencies --   1107.0888              1113.6886              1123.1153
 Red. masses --      1.7607                 4.1179                 1.6067
 Frc consts  --      1.2715                 3.0092                 1.1941
 IR Inten    --      2.7925                28.8517               164.1166

                     49                     50                     51
                      A                      A                      A
 Frequencies --   1150.7730              1159.4954              1166.1560
 Red. masses --      2.1754                 5.3339                 1.9720
 Frc consts  --      1.6974                 4.2251                 1.5800
 IR Inten    --      2.6053               207.9850                 4.8705

                     52                     53                     54
                      A                      A                      A
 Frequencies --   1190.2120              1197.5501              1216.5038
 Red. masses --      2.4288                 3.5266                 2.2663
 Frc consts  --      2.0271                 2.9799                 1.9760
 IR Inten    --    106.2111                76.5224                14.8247

                     55                     56                     57
                      A                      A                      A
 Frequencies --   1232.4266              1245.0472              1253.3621
 Red. masses --      3.1186                 1.1589                 2.2130
 Frc consts  --      2.7908                 1.0585                 2.0483
 IR Inten    --      7.2219                13.1748                15.2744

                     58                     59                     60
                      A                      A                      A
 Frequencies --   1282.3598              1288.2700              1314.0084
 Red. masses --      6.8799                 1.3877                 1.3184
 Frc consts  --      6.6658                 1.3569                 1.3412
 IR Inten    --    254.8932                12.6985                19.3421

                     61                     62                     63
                      A                      A                      A
 Frequencies --   1338.7799              1353.1457              1371.1082
 Red. masses --      1.4601                 1.2130                10.9909
 Frc consts  --      1.5418                 1.3086                12.1738
 IR Inten    --     32.3854                 2.7124                43.5807

                     64                     65                     66
                      A                      A                      A
 Frequencies --   1374.0704              1393.4133              1416.9207
 Red. masses --      1.3400                 1.5009                 1.4940
 Frc consts  --      1.4906                 1.7170                 1.7673
 IR Inten    --     14.5098                91.0955                10.2955

                     67                     68                     69
                      A                      A                      A
 Frequencies --   1429.7725              1448.1657              1493.5493
 Red. masses --      1.4212                 1.7118                 2.6278
 Frc consts  --      1.7117                 2.1152                 3.4537
 IR Inten    --      3.6068                 4.5260                36.1856

                     70                     71                     72
                      A                      A                      A
 Frequencies --   1498.0535              1506.7027              1508.7968
 Red. masses --      1.1799                 1.3182                 1.0925
 Frc consts  --      1.5601                 1.7632                 1.4653
 IR Inten    --      2.3168                 3.9659                 0.6333

                     73                     74                     75
                      A                      A                      A
 Frequencies --   1516.6356              1524.6640              1535.1971
 Red. masses --      1.1129                 1.1160                10.0527
 Frc consts  --      1.5082                 1.5284                13.9592
 IR Inten    --     13.0944                 1.0093                38.6809

                     76                     77                     78
                      A                      A                      A
 Frequencies --   1595.2780              1640.9141              2948.7594
 Red. masses --      7.9302                 7.2888                 1.0718
 Frc consts  --     11.8907                11.5632                 5.4906
 IR Inten    --     51.4721                10.7101                34.4726

                     79                     80                     81
                      A                      A                      A
 Frequencies --   2954.4772              2961.6834              3038.7757
 Red. masses --      1.0719                 1.0713                 1.0682
 Frc consts  --      5.5125                 5.5363                 5.8117
 IR Inten    --     59.9740               131.7820                43.4755

                     82                     83                     84
                      A                      A                      A
 Frequencies --   3045.4286              3073.2704              3102.0784
 Red. masses --      1.0692                 1.0878                 1.0888
 Frc consts  --      5.8425                 6.0536                 6.1731
 IR Inten    --     56.4884                28.5432                39.6198

                     85                     86                     87
                      A                      A                      A
 Frequencies --   3136.0960              3140.9681              3153.3138
 Red. masses --      1.0893                 1.0959                 1.0959
 Frc consts  --      6.3122                 6.3700                 6.4205
 IR Inten    --     11.3417                50.7787                32.3756

                     88                     89                     90
                      A                      A                      A
 Frequencies --   3237.9220              3316.6513              3504.1647
 Red. masses --      1.0931                 1.0967                 1.0731
 Frc consts  --      6.7522                 7.1081                 7.7635
 IR Inten    --     13.4182                 0.4297                 6.2179

 - Thermochemistry -
 -------------------
 Temperature   298.150 Kelvin.  Pressure   1.00000 Atm.
 Atom     1 has atomic number  6 and mass  12.00000

 Molecular mass:   301.03168 amu.
 Principal axes and moments of inertia in atomic units:
                           1         2         3
     Eigenvalues --  1656.93526********************
           X            1.00000  -0.00256  -0.00024
           Y            0.00256   0.99992  -0.01240
           Z            0.00028   0.01240   0.99992
 This molecule is an asymmetric top.
 Rotational symmetry number  1.
 Warning -- assumption of classical behavior for rotation
           may cause significant error
 Rotational temperatures (Kelvin)      0.05227     0.00537     0.00529
 Rotational constants (GHZ):           1.08920     0.11192     0.11019
 Zero-point vibrational energy     642533.2 (Joules/Mol)
                                  153.56911 (Kcal/Mol)
 Warning -- explicit consideration of  27 degrees of freedom as
           vibrations may cause significant error
 Vibrational temperatures:     35.52    40.75    63.17    88.55   100.12
          (Kelvin)            155.80   210.79   230.16   295.75   312.79
                              384.79   394.22   432.61   454.13   473.14
                              480.58   513.80   615.18   634.68   670.41
                              691.51   714.26   717.87   745.90   760.13
                              828.75   871.37   913.47   957.71   965.18
                              978.42   986.18  1164.85  1189.37  1197.19
                             1238.86  1265.32  1312.53  1357.79  1360.22
                             1403.85  1460.55  1510.90  1532.73  1566.08
                             1592.85  1602.35  1615.91  1655.71  1668.26
                             1677.84  1712.45  1723.01  1750.28  1773.19
                             1791.35  1803.31  1845.03  1853.53  1890.57
                             1926.21  1946.87  1972.72  1976.98  2004.81
                             2038.63  2057.12  2083.59  2148.88  2155.36
                             2167.81  2170.82  2182.10  2193.65  2208.81
                             2295.25  2360.91  4242.61  4250.83  4261.20
                             4372.12  4381.69  4421.75  4463.20  4512.14
                             4519.15  4536.92  4658.65  4771.92  5041.71

 Zero-point correction=                           0.244728 (Hartree/Particle)
 Thermal correction to Energy=                    0.261592
 Thermal correction to Enthalpy=                  0.262536
 Thermal correction to Gibbs Free Energy=         0.197760
 Sum of electronic and zero-point Energies=          -1633.074964
 Sum of electronic and thermal Energies=             -1633.058100
 Sum of electronic and thermal Enthalpies=           -1633.057156
 Sum of electronic and thermal Free Energies=        -1633.121931

                     E (Thermal)             CV                S
                      KCal/Mol        Cal/Mol-Kelvin    Cal/Mol-Kelvin
 Total                  164.151             64.253            136.331
 Electronic               0.000              0.000              0.000
 Translational            0.889              2.981             43.003
 Rotational               0.889              2.981             34.436
 Vibrational            162.374             58.291             58.892
 Vibration     1          0.593              1.985              6.216
 Vibration     2          0.593              1.984              5.944
 Vibration     3          0.595              1.980              5.074
 Vibration     4          0.597              1.973              4.407
 Vibration     5          0.598              1.969              4.165
 Vibration     6          0.606              1.943              3.299
 Vibration     7          0.617              1.906              2.717
 Vibration     8          0.622              1.891              2.550
 Vibration     9          0.640              1.832              2.083
 Vibration    10          0.646              1.815              1.981
 Vibration    11          0.673              1.733              1.613
 Vibration    12          0.676              1.721              1.571
 Vibration    13          0.693              1.672              1.413
 Vibration    14          0.703              1.644              1.333
 Vibration    15          0.712              1.618              1.266
 Vibration    16          0.716              1.608              1.241
 Vibration    17          0.732              1.561              1.135
 Vibration    18          0.789              1.410              0.867
 Vibration    19          0.801              1.380              0.823
 Vibration    20          0.823              1.326              0.749
 Vibration    21          0.837              1.293              0.708
 Vibration    22          0.852              1.258              0.667
 Vibration    23          0.854              1.252              0.661
 Vibration    24          0.873              1.209              0.614
 Vibration    25          0.883              1.187              0.591
 Vibration    26          0.932              1.083              0.493
 Vibration    27          0.964              1.020              0.440

                           ! Non-Optimized Parameters !
 Normal termination of Gaussian 16 at Fri May 27 10:23:13 2022.
