 Gaussian 16, Revision C.01,
 Gaussian 16:  ES64L-G16RevC.01  3-Jul-2019

 --------------------------------------------------
 #M062X/gen 6D INT(grid=ultrafine) OPT Freq=noraman
 --------------------------------------------------

 -----------
 A.2.a1.freq
 -----------
 Symbolic Z-matrix:
 Charge = -1 Multiplicity = 1

 SCF Done:  E(RM062X) =  -1294.98834535     A.U. after   17 cycles
 SCF Done:  E(RM062X) =  -1294.99019830     A.U. after   16 cycles
 SCF Done:  E(RM062X) =  -1294.99090354     A.U. after   16 cycles
 SCF Done:  E(RM062X) =  -1294.99113046     A.U. after   17 cycles
 SCF Done:  E(RM062X) =  -1294.99125234     A.U. after   17 cycles
 SCF Done:  E(RM062X) =  -1294.99128922     A.U. after   16 cycles
 SCF Done:  E(RM062X) =  -1294.99129692     A.U. after   15 cycles
 SCF Done:  E(RM062X) =  -1294.99129728     A.U. after   12 cycles
 SCF Done:  E(RM062X) =  -1294.99129752     A.U. after   13 cycles
 SCF Done:  E(RM062X) =  -1294.99129763     A.U. after   13 cycles
 SCF Done:  E(RM062X) =  -1294.99129765     A.U. after   11 cycles
 Optimization completed.
    -- Stationary point found.
 Normal termination of Gaussian 16 at Fri May 20 14:48:43 2022.

 ------------------------------------------------------------------
 #N Geom=AllCheck Guess=TCheck SCRF=Check GenChk RM062X/ChkBas Freq
 ------------------------------------------------------------------

 Structure from the checkpoint file:  "/jobfs/40737440.gadi-pbs/Gau-1889425.chk"
 -----------
 A.2.a1.freq
 -----------
 Charge = -1 Multiplicity = 1

                         Standard orientation:
 ---------------------------------------------------------------------
 Center     Atomic      Atomic             Coordinates (Angstroms)
 Number     Number       Type             X           Y           Z
 ---------------------------------------------------------------------
      1          6           0        0.525097   -0.006627   -0.067874
      2          6           0       -0.171375    1.201289   -0.038117
      3          1           0        0.393219    2.129540   -0.052441
      4          6           0       -1.563180    1.212738   -0.000992
      5          1           0       -2.117586    2.146167    0.019970
      6          6           0       -2.245453   -0.001157    0.003447
      7         17           0       -4.004707    0.003773    0.045648
      8          6           0       -1.570713   -1.215196   -0.033638
      9          1           0       -2.129041   -2.146598   -0.041127
     10          6           0       -0.175259   -1.209510   -0.068458
     11          1           0        0.385966   -2.138539   -0.117347
     12         16           0        2.349417    0.009502   -0.015772
     13          8           0        2.690078   -1.338006   -0.539769
     14          8           0        2.679381    1.163883   -0.871646
     15          7           0        2.775712    0.275688    1.465517
     16          1           0        2.776427   -0.632790    1.933764
 ---------------------------------------------------------------------

 SCF Done:  E(RM062X) =  -1294.99129765     A.U. after    1 cycles

 The electronic state is 1-A.
 Alpha  occ. eigenvalues -- -102.57857 -89.97378 -19.45673 -19.45410 -14.55986
 Alpha  occ. eigenvalues --  -10.51474 -10.46319 -10.46258 -10.45103 -10.45089
 Alpha  occ. eigenvalues --  -10.44712  -9.72535  -8.28215  -7.44918  -7.44289
 Alpha  occ. eigenvalues --   -7.44286  -6.20441  -6.20386  -6.20300  -1.04727
 Alpha  occ. eigenvalues --   -0.93225  -0.89514  -0.83382  -0.79983  -0.74751
 Alpha  occ. eigenvalues --   -0.72318  -0.59611  -0.58583  -0.52854  -0.47391
 Alpha  occ. eigenvalues --   -0.43242  -0.42752  -0.40643  -0.39327  -0.39014
 Alpha  occ. eigenvalues --   -0.36632  -0.35352  -0.33439  -0.31135  -0.29993
 Alpha  occ. eigenvalues --   -0.28371  -0.25905  -0.22591  -0.21540  -0.20786
 Alpha  occ. eigenvalues --   -0.20157  -0.18455  -0.16313  -0.13216
 Alpha virt. eigenvalues --    0.09837   0.11590   0.11861   0.12001   0.12760
 Alpha virt. eigenvalues --    0.14946   0.15906   0.16165   0.16189   0.17222
 Alpha virt. eigenvalues --    0.18338   0.18806   0.19627   0.19804   0.20715

 Mulliken charges:
               1
     1  C   -1.269974
     2  C   -0.209529
     3  H    0.242877
     4  C   -0.290336
     5  H    0.204737
     6  C    0.230667
     7  Cl   0.126373
     8  C   -0.369947
     9  H    0.203437
    10  C    0.353765
    11  H    0.243672
    12  S    1.299480
    13  O   -0.668987
    14  O   -0.611613
    15  N   -0.819655
    16  H    0.335034
 Sum of Mulliken charges =  -1.00000

 Dipole moment (field-independent basis, Debye):
    X=             -9.7108    Y=             -1.2823    Z=              0.4998  Tot=              9.8079
 Quadrupole moment (field-independent basis, Debye-Ang):
   XX=           -131.2739   YY=            -83.2966   ZZ=            -90.0573
   XY=             -4.0554   XZ=              1.4008   YZ=             -3.1396

  Exact polarizability:     169.747       0.712     113.448       4.862       0.941      82.919
 Approx polarizability:     180.210       1.530     157.764       3.326       1.284     106.813

                      1                      2                      3
                      A                      A                      A
 Frequencies --     25.0769                73.7617               147.5654
 Red. masses --      5.1148                 9.5863                10.5306
 Frc consts  --      0.0019                 0.0307                 0.1351
 IR Inten    --      0.6619                 2.3259                 3.6112

                      4                      5                      6
                      A                      A                      A
 Frequencies --    191.6115               246.9708               284.2568
 Red. masses --      6.4339                16.6724                 6.1893
 Frc consts  --      0.1392                 0.5992                 0.2947
 IR Inten    --      0.2221                 1.9183                 8.1801

                      7                      8                      9
                      A                      A                      A
 Frequencies --    330.5647               357.4240               414.9246
 Red. masses --      3.3154                 4.4886                 2.9598
 Frc consts  --      0.2134                 0.3379                 0.3002
 IR Inten    --     16.8976                11.7672                 0.0690

                     10                     11                     12
                      A                      A                      A
 Frequencies --    446.4455               476.9212               478.1777
 Red. masses --      2.2666                 3.5800                 9.0661
 Frc consts  --      0.2662                 0.4798                 1.2214
 IR Inten    --     35.3186                35.0343                29.5042

                     13                     14                     15
                      A                      A                      A
 Frequencies --    503.9271               548.1108               617.5125
 Red. masses --      3.6922                 4.4653                14.4830
 Frc consts  --      0.5524                 0.7904                 3.2539
 IR Inten    --     32.1749                50.6134               119.6289

                     16                     17                     18
                      A                      A                      A
 Frequencies --    637.8765               722.0289               754.4081
 Red. masses --      7.0948                 4.0679                 7.3118
 Frc consts  --      1.7008                 1.2495                 2.4518
 IR Inten    --      0.0575                 6.1686                85.3390

                     19                     20                     21
                      A                      A                      A
 Frequencies --    842.1525               847.6052               959.5774
 Red. masses --      1.4545                 1.2850                13.1990
 Frc consts  --      0.6078                 0.5439                 7.1606
 IR Inten    --     25.7401                 7.1591               263.6805

                     22                     23                     24
                      A                      A                      A
 Frequencies --    977.1888               996.6264              1029.4133
 Red. masses --      1.3293                 1.3528                 4.6395
 Frc consts  --      0.7479                 0.7917                 2.8967
 IR Inten    --      3.2524                 0.2943                 8.9836

                     25                     26                     27
                      A                      A                      A
 Frequencies --   1112.3332              1118.2262              1120.7022
 Red. masses --      2.0876                 3.6093                 1.3372
 Frc consts  --      1.5218                 2.6591                 0.9896
 IR Inten    --    144.3498                99.4924                18.9936

                     28                     29                     30
                      A                      A                      A
 Frequencies --   1131.0136              1149.7986              1192.5334
 Red. masses --      2.1664                 3.6313                 1.1449
 Frc consts  --      1.6328                 2.8285                 0.9593
 IR Inten    --     32.3607               162.2907                 1.2318

                     31                     32                     33
                      A                      A                      A
 Frequencies --   1266.3414              1311.1598              1330.2892
 Red. masses --      5.7810                 1.2718                10.8901
 Frc consts  --      5.4621                 1.2882                11.3547
 IR Inten    --    218.9126                 3.6678                 4.3282

                     34                     35                     36
                      A                      A                      A
 Frequencies --   1434.4632              1522.9109              1656.3527
 Red. masses --      3.1500                 2.3947                 6.4424
 Frc consts  --      3.8190                 3.2723                10.4137
 IR Inten    --      8.9736                42.4190                 5.3106

                     37                     38                     39
                      A                      A                      A
 Frequencies --   1659.3812              3224.9628              3226.2792
 Red. masses --      7.6740                 1.0881                 1.0884
 Frc consts  --     12.4499                 6.6678                 6.6750
 IR Inten    --      5.1464                 2.4386                 4.5881

                     40                     41                     42
                      A                      A                      A
 Frequencies --   3238.4171              3239.9986              3507.1788
 Red. masses --      1.0943                 1.0953                 1.0731
 Frc consts  --      6.7614                 6.7742                 7.7772
 IR Inten    --      8.7538                 9.4144                 5.3244

 - Thermochemistry -
 -------------------
 Temperature   298.150 Kelvin.  Pressure   1.00000 Atm.
 Atom     1 has atomic number  6 and mass  12.00000

 Molecular mass:   189.97295 amu.
 Principal axes and moments of inertia in atomic units:
                           1         2         3
     Eigenvalues --   683.265804525.274414845.37992
           X            0.99999  -0.00153   0.00472
           Y            0.00158   0.99994  -0.01074
           Z           -0.00470   0.01074   0.99993
 This molecule is an asymmetric top.
 Rotational symmetry number  1.
 Warning -- assumption of classical behavior for rotation
           may cause significant error
 Rotational temperatures (Kelvin)      0.12676     0.01914     0.01788
 Rotational constants (GHZ):           2.64135     0.39881     0.37247
 Zero-point vibrational energy     277249.3 (Joules/Mol)
                                   66.26418 (Kcal/Mol)
 Warning -- explicit consideration of  15 degrees of freedom as
           vibrations may cause significant error
 Vibrational temperatures:     36.08   106.13   212.31   275.69   355.34
          (Kelvin)            408.98   475.61   514.25   596.98   642.34
                              686.18   687.99   725.04   788.61   888.46
                              917.76  1038.84  1085.43  1211.67  1219.51
                             1380.62  1405.96  1433.92  1481.10  1600.40
                             1608.88  1612.44  1627.28  1654.30  1715.79
                             1821.98  1886.47  1913.99  2063.87  2191.13
                             2383.12  2387.48  4640.00  4641.90  4659.36
                             4661.64  5046.05

 Zero-point correction=                           0.105599 (Hartree/Particle)
 Thermal correction to Energy=                    0.115404
 Thermal correction to Enthalpy=                  0.116348
 Thermal correction to Gibbs Free Energy=         0.068654
 Sum of electronic and zero-point Energies=          -1294.885699
 Sum of electronic and thermal Energies=             -1294.875894
 Sum of electronic and thermal Enthalpies=           -1294.874949
 Sum of electronic and thermal Free Energies=        -1294.922643

                     E (Thermal)             CV                S
                      KCal/Mol        Cal/Mol-Kelvin    Cal/Mol-Kelvin
 Total                   72.417             36.475            100.380
 Electronic               0.000              0.000              0.000
 Translational            0.889              2.981             41.631
 Rotational               0.889              2.981             31.083
 Vibrational             70.640             30.513             27.666
 Vibration     1          0.593              1.985              6.185
 Vibration     2          0.599              1.966              4.050
 Vibration     3          0.617              1.905              2.703
 Vibration     4          0.634              1.851              2.212
 Vibration     5          0.661              1.768              1.752
 Vibration     6          0.683              1.703              1.508
 Vibration     7          0.713              1.614              1.257
 Vibration     8          0.733              1.560              1.133
 Vibration     9          0.778              1.438              0.909
 Vibration    10          0.806              1.369              0.807
 Vibration    11          0.833              1.301              0.718
 Vibration    12          0.835              1.298              0.715
 Vibration    13          0.859              1.241              0.648
 Vibration    14          0.903              1.144              0.548
 Vibration    15          0.977              0.995              0.421

 Optimization completed.
    -- Stationary point found.
 Normal termination of Gaussian 16 at Fri May 20 14:51:11 2022.
