 Gaussian 16, Revision C.01,
 Gaussian 16:  ES64L-G16RevC.01  3-Jul-2019

 --------------------------------------------------
 #M062X/gen 6D INT(grid=ultrafine) OPT Freq=noraman
 --------------------------------------------------

 ----------------
 A.20.a3b2e2.freq
 ----------------
 Symbolic Z-matrix:
 Charge = -1 Multiplicity = 1

 SCF Done:  E(RM062X) =  -2261.41083904     A.U. after   17 cycles
 SCF Done:  E(RM062X) =  -2261.41460124     A.U. after   16 cycles
 SCF Done:  E(RM062X) =  -2261.41577190     A.U. after   15 cycles
 SCF Done:  E(RM062X) =  -2261.41616977     A.U. after   15 cycles
 SCF Done:  E(RM062X) =  -2261.41634121     A.U. after   15 cycles
 SCF Done:  E(RM062X) =  -2261.41641007     A.U. after   14 cycles
 SCF Done:  E(RM062X) =  -2261.41644984     A.U. after   14 cycles
 SCF Done:  E(RM062X) =  -2261.41646252     A.U. after   13 cycles
 SCF Done:  E(RM062X) =  -2261.41646743     A.U. after   13 cycles
 SCF Done:  E(RM062X) =  -2261.41646894     A.U. after   13 cycles
 SCF Done:  E(RM062X) =  -2261.41646922     A.U. after   12 cycles
 SCF Done:  E(RM062X) =  -2261.41646931     A.U. after   11 cycles
 SCF Done:  E(RM062X) =  -2261.41646935     A.U. after   10 cycles
 Optimization completed.
    -- Stationary point found.
 Normal termination of Gaussian 16 at Sat May 28 15:26:48 2022.

 ------------------------------------------------------------------
 #N Geom=AllCheck Guess=TCheck SCRF=Check GenChk RM062X/ChkBas Freq
 ------------------------------------------------------------------

 Structure from the checkpoint file:  "/jobfs/41560454.gadi-pbs/Gau-3468551.chk"
 ----------------
 A.20.a3b2e2.freq
 ----------------
 Charge = -1 Multiplicity = 1

                         Standard orientation:
 ---------------------------------------------------------------------
 Center     Atomic      Atomic             Coordinates (Angstroms)
 Number     Number       Type             X           Y           Z
 ---------------------------------------------------------------------
      1          6           0        3.924104   -0.375455    0.230415
      2         16           0        4.990627   -1.773339   -0.281219
      3          8           0        6.206130   -1.094216   -0.748772
      4          8           0        5.099049   -2.513980    0.998218
      5          7           0        4.244075   -2.495494   -1.440005
      6          1           0        3.586124   -3.143384   -1.002314
      7         16           0        4.053172    0.323982    1.808484
      8          6           0        2.844454    1.492099    1.466223
      9          6           0        2.379236    1.335051    0.188709
     10          6           0        2.991189    0.264258   -0.530950
     11         16           0        1.054588    2.309521   -0.434848
     12          6           0       -0.343665    1.192158   -0.389686
     13          8           0        1.300054    2.615816   -1.844202
     14          8           0        0.780128    3.379098    0.530204
     15          6           0       -0.613443    0.401417   -1.499691
     16          6           0       -1.686919   -0.487028   -1.447158
     17          6           0       -2.475757   -0.585037   -0.300830
     18          6           0       -2.190115    0.229880    0.801085
     19          6           0       -1.122519    1.119255    0.763419
     20          1           0        2.514509    2.225378    2.190440
     21          1           0        2.770976   -0.026367   -1.552365
     22          1           0        0.001864    0.494676   -2.389700
     23          1           0       -1.912008   -1.109233   -2.310122
     24          1           0       -0.889579    1.762820    1.606853
     25          6           0       -3.621473   -1.569280   -0.231786
     26          7           0       -4.850903   -0.959353    0.258793
     27          1           0       -2.822688    0.164636    1.682409
     28          1           0       -3.359237   -2.380730    0.459368
     29          1           0       -3.773167   -2.029972   -1.227543
     30          6           0       -5.361934    0.047309   -0.666084
     31          6           0       -5.878627   -1.961704    0.505219
     32          6           0       -7.131608   -1.290961    1.049433
     33          6           0       -6.626627    0.671378   -0.097700
     34          8           0       -7.616244   -0.310548    0.153277
     35          1           0       -5.588323   -0.404903   -1.652422
     36          1           0       -4.600338    0.820332   -0.812517
     37          1           0       -5.500816   -2.687573    1.234762
     38          1           0       -6.135546   -2.509193   -0.423702
     39          1           0       -6.903724   -0.825516    2.021517
     40          1           0       -7.936264   -2.018926    1.181206
     41          1           0       -7.063379    1.378670   -0.806783
     42          1           0       -6.385512    1.201189    0.837224
 ---------------------------------------------------------------------

 SCF Done:  E(RM062X) =  -2261.41646935     A.U. after    1 cycles

 The electronic state is 1-A.
 Alpha  occ. eigenvalues --  -90.06080 -89.99386 -89.86642 -19.60574 -19.55489
 Alpha  occ. eigenvalues --  -19.55315 -19.47164 -19.46868 -14.71728 -14.57792
 Alpha  occ. eigenvalues --  -10.55181 -10.54887 -10.53217 -10.53084 -10.52480
 Alpha  occ. eigenvalues --  -10.51600 -10.51293 -10.50614 -10.50545 -10.50341
 Alpha  occ. eigenvalues --  -10.50208 -10.50111 -10.49336 -10.48197 -10.46402
 Alpha  occ. eigenvalues --   -8.37368  -8.30147  -8.21028  -6.29546  -6.29490
 Alpha  occ. eigenvalues --   -6.29441  -6.22353  -6.22345  -6.22239  -6.13018
 Alpha  occ. eigenvalues --   -6.12781  -6.12599  -1.14352  -1.12369  -1.06504
 Alpha  occ. eigenvalues --   -1.03684  -0.99865  -0.94731  -0.91617  -0.90074
 Alpha  occ. eigenvalues --   -0.83328  -0.82821  -0.82179  -0.79404  -0.77825
 Alpha  occ. eigenvalues --   -0.75537  -0.73468  -0.70249  -0.69883  -0.65925
 Alpha  occ. eigenvalues --   -0.64468  -0.61051  -0.60256  -0.58611  -0.55935
 Alpha  occ. eigenvalues --   -0.54050  -0.52398  -0.51647  -0.50730  -0.50289
 Alpha  occ. eigenvalues --   -0.49834  -0.49493  -0.48858  -0.47239  -0.46436
 Alpha  occ. eigenvalues --   -0.44753  -0.44406  -0.43798  -0.43694  -0.43366
 Alpha  occ. eigenvalues --   -0.41973  -0.40517  -0.40481  -0.38968  -0.38464
 Alpha  occ. eigenvalues --   -0.37893  -0.37711  -0.37571  -0.37493  -0.35951
 Alpha  occ. eigenvalues --   -0.35305  -0.35005  -0.33246  -0.32677  -0.31564
 Alpha  occ. eigenvalues --   -0.30963  -0.29220  -0.28586  -0.27542  -0.27129
 Alpha  occ. eigenvalues --   -0.25884  -0.25595  -0.24381  -0.24121  -0.23637
 Alpha  occ. eigenvalues --   -0.21438  -0.20768  -0.19142  -0.17971  -0.15733
 Alpha virt. eigenvalues --    0.05228   0.06523   0.06996   0.07299   0.07595
 Alpha virt. eigenvalues --    0.07938   0.09299   0.09452   0.09723   0.10360
 Alpha virt. eigenvalues --    0.10850   0.10982   0.11135   0.11668   0.12427

 Mulliken charges:
               1
     1  C   -2.002609
     2  S    1.713644
     3  O   -0.541434
     4  O   -0.629527
     5  N   -0.859564
     6  H    0.346916
     7  S    0.333250
     8  C   -0.256651
     9  C   -0.687062
    10  C    1.290040
    11  S    0.590318
    12  C   -0.189634
    13  O   -0.362502
    14  O   -0.458988
    15  C   -0.057713
    16  C   -0.247831
    17  C    0.462512
    18  C   -0.716475
    19  C    0.235316
    20  H    0.263207
    21  H    0.267477
    22  H    0.257248
    23  H    0.207676
    24  H    0.248143
    25  C   -0.655879
    26  N   -0.384487
    27  H    0.229751
    28  H    0.230287
    29  H    0.205219
    30  C   -0.174699
    31  C   -0.173387
    32  C   -0.388252
    33  C   -0.446082
    34  O   -0.347184
    35  H    0.212627
    36  H    0.246133
    37  H    0.206150
    38  H    0.216131
    39  H    0.203354
    40  H    0.202054
    41  H    0.206707
    42  H    0.205801
 Sum of Mulliken charges =  -1.00000

 Dipole moment (field-independent basis, Debye):
    X=            -22.3458    Y=              1.8289    Z=              3.6687  Tot=             22.7187
 Quadrupole moment (field-independent basis, Debye-Ang):
   XX=           -317.1081   YY=           -207.0913   ZZ=           -180.2195
   XY=             41.9058   XZ=             12.1486   YZ=              2.8329

  Exact polarizability:     318.120       2.591     243.757       3.185      14.541     235.816
 Approx polarizability:     318.779       5.521     308.115       6.554      23.640     349.373

                      1                      2                      3
                      A                      A                      A
 Frequencies --     12.0084                14.2525                19.4743
 Red. masses --      9.3551                 8.1488                 5.0275
 Frc consts  --      0.0008                 0.0010                 0.0011
 IR Inten    --      1.5298                 2.7205                 1.6213

                      4                      5                      6
                      A                      A                      A
 Frequencies --     29.2300                41.7194                47.4456
 Red. masses --      6.0857                 6.7091                 5.1193
 Frc consts  --      0.0031                 0.0069                 0.0068
 IR Inten    --      1.1369                 0.8075                 1.2818

                      7                      8                      9
                      A                      A                      A
 Frequencies --     58.1159                88.2396                99.1180
 Red. masses --      3.2598                12.2883                 6.2339
 Frc consts  --      0.0065                 0.0564                 0.0361
 IR Inten    --      0.3116                 2.7396                 1.8738

                     10                     11                     12
                      A                      A                      A
 Frequencies --    136.0079               142.8120               172.3797
 Red. masses --      6.0914                 6.1343                 7.4815
 Frc consts  --      0.0664                 0.0737                 0.1310
 IR Inten    --      1.3457                 1.6184                 1.4754

                     13                     14                     15
                      A                      A                      A
 Frequencies --    190.6964               222.0280               229.6914
 Red. masses --      5.9409                 6.1666                12.9150
 Frc consts  --      0.1273                 0.1791                 0.4015
 IR Inten    --      4.2555                 3.1692                 0.6267

                     16                     17                     18
                      A                      A                      A
 Frequencies --    234.1935               269.5089               291.0059
 Red. masses --      5.6866                 1.9278                 5.1547
 Frc consts  --      0.1838                 0.0825                 0.2572
 IR Inten    --      5.1880                 0.3908                 1.9496

                     19                     20                     21
                      A                      A                      A
 Frequencies --    307.1285               308.3818               327.7916
 Red. masses --      8.2578                 5.2468                 4.5257
 Frc consts  --      0.4589                 0.2940                 0.2865
 IR Inten    --      1.2996                 5.7741                10.7805

                     22                     23                     24
                      A                      A                      A
 Frequencies --    336.6230               357.2341               371.5205
 Red. masses --      4.8877                 2.5499                 5.2038
 Frc consts  --      0.3263                 0.1917                 0.4232
 IR Inten    --      3.1511                 5.3405                 5.9855

                     25                     26                     27
                      A                      A                      A
 Frequencies --    389.3405               415.3773               419.3686
 Red. masses --      4.8032                 2.9158                 2.2785
 Frc consts  --      0.4290                 0.2964                 0.2361
 IR Inten    --      2.8905                 0.2849                34.9829

                     28                     29                     30
                      A                      A                      A
 Frequencies --    442.7391               464.3522               476.6411
 Red. masses --      1.8987                 5.9958                 5.7208
 Frc consts  --      0.2193                 0.7617                 0.7658
 IR Inten    --      2.1658                 3.9500                 2.5324

                     31                     32                     33
                      A                      A                      A
 Frequencies --    491.7387               498.7177               512.2469
 Red. masses --      1.9384                 2.9193                 4.2026
 Frc consts  --      0.2762                 0.4278                 0.6497
 IR Inten    --     56.4030                 2.4636                22.4858

                     34                     35                     36
                      A                      A                      A
 Frequencies --    517.0477               538.3736               568.1592
 Red. masses --     11.7973                 8.4423                 6.3787
 Frc consts  --      1.8582                 1.4417                 1.2132
 IR Inten    --     19.8699                37.1493                33.2790

                     37                     38                     39
                      A                      A                      A
 Frequencies --    588.7794               611.3414               635.2219
 Red. masses --     10.3923                 6.1712                 2.6198
 Frc consts  --      2.1226                 1.3589                 0.6228
 IR Inten    --    327.1205                43.2464                 6.8913

                     40                     41                     42
                      A                      A                      A
 Frequencies --    638.9160               647.7479               690.8208
 Red. masses --      4.3479                 3.5030                 7.4672
 Frc consts  --      1.0457                 0.8660                 2.0996
 IR Inten    --     60.9564                 1.8153                31.6324

                     43                     44                     45
                      A                      A                      A
 Frequencies --    699.7493               743.4091               792.1664
 Red. masses --      5.2377                 4.2624                 1.2824
 Frc consts  --      1.5110                 1.3879                 0.4741
 IR Inten    --    113.3112                32.1970                12.9409

                     46                     47                     48
                      A                      A                      A
 Frequencies --    825.5869               842.8600               861.7309
 Red. masses --      2.2064                 3.5552                 2.5735
 Frc consts  --      0.8861                 1.4881                 1.1259
 IR Inten    --     10.2126                 9.7632                49.3559

                     49                     50                     51
                      A                      A                      A
 Frequencies --    869.7005               873.8683               874.9502
 Red. masses --      1.3359                 1.5404                 2.3202
 Frc consts  --      0.5953                 0.6931                 1.0465
 IR Inten    --      6.6387                 3.1540                10.3869

                     52                     53                     54
                      A                      A                      A
 Frequencies --    880.3207               898.7019               916.3069
 Red. masses --      1.6103                 5.3484                 2.8354
 Frc consts  --      0.7352                 2.5451                 1.4026
 IR Inten    --      1.4875                35.2589                37.7593

                     55                     56                     57
                      A                      A                      A
 Frequencies --    946.6973               962.8727               992.0125
 Red. masses --      2.0700                11.0611                 1.3349
 Frc consts  --      1.0930                 6.0421                 0.7740
 IR Inten    --     20.3184               128.5214                 3.3405

                     58                     59                     60
                      A                      A                      A
 Frequencies --   1009.4776              1018.4475              1020.4260
 Red. masses --      1.3665                 4.2046                 1.9440
 Frc consts  --      0.8205                 2.5695                 1.1926
 IR Inten    --      0.6092               178.9665                20.7414

                     61                     62                     63
                      A                      A                      A
 Frequencies --   1038.5371              1054.6634              1065.4281
 Red. masses --      3.1605                 2.5396                 2.0703
 Frc consts  --      2.0084                 1.6643                 1.3846
 IR Inten    --     10.5544                32.3917                 8.9498

                     64                     65                     66
                      A                      A                      A
 Frequencies --   1094.6192              1107.4032              1117.8104
 Red. masses --      2.4924                 1.7407                 1.4975
 Frc consts  --      1.7595                 1.2577                 1.1024
 IR Inten    --     47.5473                 1.4351               133.1760

                     67                     68                     69
                      A                      A                      A
 Frequencies --   1127.3966              1134.8625              1154.7411
 Red. masses --      2.6085                 1.3328                 2.0927
 Frc consts  --      1.9534                 1.0113                 1.6441
 IR Inten    --     85.0833                 7.5980                 4.2532

                     70                     71                     72
                      A                      A                      A
 Frequencies --   1163.3939              1165.0139              1187.5461
 Red. masses --      6.0418                 5.1368                 2.3668
 Frc consts  --      4.8180                 4.1078                 1.9666
 IR Inten    --    204.2944               153.4518                60.3987

                     73                     74                     75
                      A                      A                      A
 Frequencies --   1192.3116              1199.0504              1206.4322
 Red. masses --      1.3769                 3.5702                 1.1571
 Frc consts  --      1.1533                 3.0243                 0.9922
 IR Inten    --     25.3591                91.7345                 2.4275

                     76                     77                     78
                      A                      A                      A
 Frequencies --   1224.9521              1244.1133              1249.1661
 Red. masses --      2.4886                 1.5711                 1.4629
 Frc consts  --      2.2001                 1.4328                 1.3450
 IR Inten    --     12.0069                 4.5915                 5.1674

                     79                     80                     81
                      A                      A                      A
 Frequencies --   1277.1916              1279.1420              1308.2207
 Red. masses --      1.4486                 7.1315                 1.5476
 Frc consts  --      1.3922                 6.8749                 1.5605
 IR Inten    --     11.0142               256.0663                33.9820

                     82                     83                     84
                      A                      A                      A
 Frequencies --   1322.9690              1332.6251              1336.0707
 Red. masses --      3.7779                 1.6463                 1.9995
 Frc consts  --      3.8958                 1.7226                 2.1029
 IR Inten    --    103.5664                69.4675                11.3302

                     85                     86                     87
                      A                      A                      A
 Frequencies --   1352.6429              1360.7879              1375.4808
 Red. masses --      1.2262                 2.3771                 1.3100
 Frc consts  --      1.3218                 2.5935                 1.4603
 IR Inten    --      1.8855                15.6551                 5.5312

                     88                     89                     90
                      A                      A                      A
 Frequencies --   1377.3499              1399.8004              1419.6247
 Red. masses --      4.0393                 1.5402                 1.5364
 Frc consts  --      4.5149                 1.7781                 1.8243
 IR Inten    --      4.9218                56.0338                13.5206

                     91                     92                     93
                      A                      A                      A
 Frequencies --   1432.1094              1449.6867              1461.5007
 Red. masses --      1.4457                 1.8571                 2.3507
 Frc consts  --      1.7470                 2.2995                 2.9584
 IR Inten    --      4.2464                10.1939                20.3057

                     94                     95                     96
                      A                      A                      A
 Frequencies --   1499.4661              1507.5643              1508.0996
 Red. masses --      1.0845                 1.4426                 3.0401
 Frc consts  --      1.4366                 1.9318                 4.0738
 IR Inten    --      0.9810                 9.0303                39.5292

                     97                     98                     99
                      A                      A                      A
 Frequencies --   1508.8118              1518.4760              1525.0866
 Red. masses --      1.0925                 1.1076                 1.1113
 Frc consts  --      1.4653                 1.5047                 1.5229
 IR Inten    --      0.5736                15.1066                 0.1911

                    100                    101                    102
                      A                      A                      A
 Frequencies --   1551.1735              1588.6308              1665.5139
 Red. masses --      2.5684                 7.3049                 7.3048
 Frc consts  --      3.6411                10.8620                11.9387
 IR Inten    --      2.9406                17.9045                 1.5110

                    103                    104                    105
                      A                      A                      A
 Frequencies --   1687.4816              2960.3596              2964.3196
 Red. masses --      6.2088                 1.0720                 1.0719
 Frc consts  --     10.4169                 5.5351                 5.5497
 IR Inten    --      5.9059                28.3072                33.1901

                    106                    107                    108
                      A                      A                      A
 Frequencies --   2970.5918              3036.6088              3041.2436
 Red. masses --      1.0711                 1.0689                 1.0695
 Frc consts  --      5.5687                 5.8072                 5.8283
 IR Inten    --    133.7698                34.7106                67.7055

                    109                    110                    111
                      A                      A                      A
 Frequencies --   3084.7060              3106.5904              3128.4444
 Red. masses --      1.0884                 1.0896                 1.0894
 Frc consts  --      6.1017                 6.1953                 6.2822
 IR Inten    --     12.9244                33.7203                15.5458

                    112                    113                    114
                      A                      A                      A
 Frequencies --   3146.1898              3152.5067              3212.3498
 Red. masses --      1.0952                 1.0955                 1.0900
 Frc consts  --      6.3870                 6.4148                 6.6271
 IR Inten    --     45.0503                31.1498                10.0221

                    115                    116                    117
                      A                      A                      A
 Frequencies --   3223.2554              3240.7737              3245.0411
 Red. masses --      1.0888                 1.0944                 1.0938
 Frc consts  --      6.6646                 6.7721                 6.7860
 IR Inten    --      3.2104                 1.8330                 2.0746

                    118                    119                    120
                      A                      A                      A
 Frequencies --   3265.6739              3292.8921              3506.5448
 Red. masses --      1.0938                 1.0941                 1.0732
 Frc consts  --      6.8725                 6.9899                 7.7748
 IR Inten    --      2.5395                 4.6771                 5.6874

 - Thermochemistry -
 -------------------
 Temperature   298.150 Kelvin.  Pressure   1.00000 Atm.
 Atom     1 has atomic number  6 and mass  12.00000

 Molecular mass:   401.02996 amu.
 Principal axes and moments of inertia in atomic units:
                           1         2         3
     Eigenvalues --  5076.55758********************
           X            0.99997   0.00732  -0.00217
           Y           -0.00730   0.99991   0.01143
           Z            0.00225  -0.01141   0.99993
 This molecule is an asymmetric top.
 Rotational symmetry number  1.
 Warning -- assumption of classical behavior for rotation
           may cause significant error
 Rotational temperatures (Kelvin)      0.01706     0.00328     0.00301
 Rotational constants (GHZ):           0.35550     0.06826     0.06278
 Zero-point vibrational energy     838784.8 (Joules/Mol)
                                  200.47437 (Kcal/Mol)
 Warning -- explicit consideration of  38 degrees of freedom as
           vibrations may cause significant error
 Vibrational temperatures:     17.28    20.51    28.02    42.06    60.02
          (Kelvin)             68.26    83.62   126.96   142.61   195.69
                              205.47   248.02   274.37   319.45   330.47
                              336.95   387.76   418.69   441.89   443.69
                              471.62   484.33   513.98   534.54   560.17
                              597.64   603.38   637.00   668.10   685.78
                              707.50   717.54   737.01   743.92   774.60
                              817.45   847.12   879.58   913.94   919.26
                              931.96   993.94  1006.78  1069.60  1139.75
                             1187.84  1212.69  1239.84  1251.31  1257.30
                             1258.86  1266.59  1293.03  1318.36  1362.09
                             1385.36  1427.28  1452.41  1465.32  1468.17
                             1494.22  1517.43  1532.91  1574.91  1593.31
                             1608.28  1622.07  1632.81  1661.41  1673.86
                             1676.20  1708.61  1715.47  1725.17  1735.79
                             1762.43  1790.00  1797.27  1837.59  1840.40
                             1882.24  1903.46  1917.35  1922.31  1946.15
                             1957.87  1979.01  1981.70  2014.00  2042.52
                             2060.49  2085.78  2102.77  2157.40  2169.05
                             2169.82  2170.84  2184.75  2194.26  2231.79
                             2285.69  2396.30  2427.91  4259.30  4264.99
                             4274.02  4369.00  4375.67  4438.20  4469.69
                             4501.13  4526.67  4535.75  4621.85  4637.55
                             4662.75  4668.89  4698.58  4737.74  5045.14

 Zero-point correction=                           0.319476 (Hartree/Particle)
 Thermal correction to Energy=                    0.342537
 Thermal correction to Enthalpy=                  0.343481
 Thermal correction to Gibbs Free Energy=         0.262008
 Sum of electronic and zero-point Energies=          -2261.096993
 Sum of electronic and thermal Energies=             -2261.073932
 Sum of electronic and thermal Enthalpies=           -2261.072988
 Sum of electronic and thermal Free Energies=        -2261.154462

                     E (Thermal)             CV                S
                      KCal/Mol        Cal/Mol-Kelvin    Cal/Mol-Kelvin
 Total                  214.945             87.330            171.475
 Electronic               0.000              0.000              0.000
 Translational            0.889              2.981             43.858
 Rotational               0.889              2.981             36.599
 Vibrational            213.168             81.369             91.019
 Vibration     1          0.593              1.987              7.647
 Vibration     2          0.593              1.986              7.307
 Vibration     3          0.593              1.986              6.687
 Vibration     4          0.593              1.984              5.881
 Vibration     5          0.594              1.981              5.176
 Vibration     6          0.595              1.979              4.921
 Vibration     7          0.596              1.974              4.520
 Vibration     8          0.601              1.957              3.699
 Vibration     9          0.604              1.950              3.472
 Vibration    10          0.614              1.917              2.859
 Vibration    11          0.616              1.910              2.766
 Vibration    12          0.626              1.876              2.409
 Vibration    13          0.634              1.853              2.221
 Vibration    14          0.648              1.808              1.942
 Vibration    15          0.652              1.796              1.881
 Vibration    16          0.654              1.789              1.847
 Vibration    17          0.674              1.729              1.599
 Vibration    18          0.687              1.690              1.468
 Vibration    19          0.697              1.660              1.378
 Vibration    20          0.698              1.658              1.371
 Vibration    21          0.711              1.620              1.271
 Vibration    22          0.717              1.602              1.228
 Vibration    23          0.732              1.560              1.134
 Vibration    24          0.743              1.531              1.074
 Vibration    25          0.757              1.493              1.003
 Vibration    26          0.779              1.437              0.908
 Vibration    27          0.782              1.428              0.894
 Vibration    28          0.802              1.377              0.818
 Vibration    29          0.822              1.329              0.754
 Vibration    30          0.833              1.302              0.719
 Vibration    31          0.847              1.268              0.679
 Vibration    32          0.854              1.253              0.661
 Vibration    33          0.867              1.223              0.628
 Vibration    34          0.872              1.212              0.617
 Vibration    35          0.893              1.165              0.569
 Vibration    36          0.924              1.100              0.508
 Vibration    37          0.946              1.056              0.469
 Vibration    38          0.970              1.008              0.431

                           ! Non-Optimized Parameters !
 Normal termination of Gaussian 16 at Sat May 28 16:05:31 2022.
