 Gaussian 16, Revision C.01,
 Gaussian 16:  ES64L-G16RevC.01  3-Jul-2019

 --------------------------------------------------
 #M062X/gen 6D INT(grid=ultrafine) OPT Freq=noraman
 --------------------------------------------------

 --------------
 A.21.a3b3.freq
 --------------
 Symbolic Z-matrix:
 Charge = -1 Multiplicity = 1

 SCF Done:  E(RM062X) =  -1895.36377476     A.U. after   18 cycles
 SCF Done:  E(RM062X) =  -1895.36648371     A.U. after   15 cycles
 SCF Done:  E(RM062X) =  -1895.36716822     A.U. after   14 cycles
 SCF Done:  E(RM062X) =  -1895.36728184     A.U. after   14 cycles
 SCF Done:  E(RM062X) =  -1895.36725695     A.U. after   14 cycles
 SCF Done:  E(RM062X) =  -1895.36736124     A.U. after   13 cycles
 SCF Done:  E(RM062X) =  -1895.36738255     A.U. after   13 cycles
 SCF Done:  E(RM062X) =  -1895.36738584     A.U. after   12 cycles
 SCF Done:  E(RM062X) =  -1895.36738650     A.U. after   11 cycles
 SCF Done:  E(RM062X) =  -1895.36738661     A.U. after   10 cycles
 Optimization completed.
    -- Stationary point found.
 Normal termination of Gaussian 16 at Fri May 27 10:12:06 2022.

 ------------------------------------------------------------------
 #N Geom=AllCheck Guess=TCheck SCRF=Check GenChk RM062X/ChkBas Freq
 ------------------------------------------------------------------

 Structure from the checkpoint file:  "/jobfs/41455122.gadi-pbs/Gau-897481.chk"
 --------------
 A.21.a3b3.freq
 --------------
 Charge = -1 Multiplicity = 1

                         Standard orientation:
 ---------------------------------------------------------------------
 Center     Atomic      Atomic             Coordinates (Angstroms)
 Number     Number       Type             X           Y           Z
 ---------------------------------------------------------------------
      1          6           0       -1.492998   -0.002623   -0.113504
      2         16           0       -3.303124   -0.271954    0.004568
      3          8           0       -3.811653    0.957133   -0.619584
      4          8           0       -3.444730   -1.539175   -0.740971
      5          7           0       -3.648232   -0.329899    1.519309
      6          1           0       -3.502414   -1.295777    1.818841
      7         16           0       -0.846284    1.584238   -0.067620
      8          6           0        0.773159    0.984014   -0.025887
      9          6           0        0.765921   -0.401948   -0.055327
     10          6           0       -0.519147   -0.976787   -0.108916
     11          6           0        1.937805    1.869892    0.026307
     12         16           0        2.279218   -1.320195   -0.057315
     13          8           0        2.784157   -1.463080   -1.425521
     14          8           0        2.129546   -2.510387    0.779040
     15          1           0       -0.736157   -2.038234   -0.137331
     16          6           0        3.312051    1.204853    0.055635
     17          6           0        3.343887   -0.139209    0.778348
     18          8           0        1.843641    3.085117    0.026431
     19          1           0        4.003711    1.910116    0.524505
     20          1           0        3.632613    1.061736   -0.984128
     21          1           0        2.991458   -0.075145    1.811558
     22          1           0        4.339704   -0.592860    0.762163
 ---------------------------------------------------------------------

 SCF Done:  E(RM062X) =  -1895.36738661     A.U. after    1 cycles

 The electronic state is 1-A.
 Alpha  occ. eigenvalues --  -90.06819 -90.00451 -89.87940 -19.56795 -19.56344
 Alpha  occ. eigenvalues --  -19.56187 -19.48310 -19.48044 -14.58756 -10.58051
 Alpha  occ. eigenvalues --  -10.52590 -10.51546 -10.51315 -10.50679 -10.50153
 Alpha  occ. eigenvalues --  -10.47868  -8.38210  -8.31208  -8.22247  -6.30362
 Alpha  occ. eigenvalues --   -6.30310  -6.30296  -6.23421  -6.23412  -6.23288
 Alpha  occ. eigenvalues --   -6.14225  -6.13990  -6.13816  -1.15265  -1.09794
 Alpha  occ. eigenvalues --   -1.07714  -1.04340  -0.96137  -0.92048  -0.86031
 Alpha  occ. eigenvalues --   -0.82993  -0.77682  -0.76351  -0.73056  -0.64313
 Alpha  occ. eigenvalues --   -0.63117  -0.57442  -0.54181  -0.52486  -0.50449
 Alpha  occ. eigenvalues --   -0.49140  -0.47334  -0.45949  -0.44709  -0.44457
 Alpha  occ. eigenvalues --   -0.43200  -0.42209  -0.40784  -0.40146  -0.38700
 Alpha  occ. eigenvalues --   -0.37770  -0.37693  -0.35337  -0.33637  -0.32207
 Alpha  occ. eigenvalues --   -0.31795  -0.30039  -0.28546  -0.27870  -0.25950
 Alpha  occ. eigenvalues --   -0.25153  -0.23900  -0.23270  -0.22458  -0.21127
 Alpha  occ. eigenvalues --   -0.18883  -0.15980
 Alpha virt. eigenvalues --    0.03633   0.07456   0.10457   0.10628   0.11469
 Alpha virt. eigenvalues --    0.12945   0.13210   0.13510   0.14105   0.14479
 Alpha virt. eigenvalues --    0.14776   0.15012   0.15749   0.16020   0.16444

 Mulliken charges:
               1
     1  C   -1.314591
     2  S    1.590758
     3  O   -0.596259
     4  O   -0.602626
     5  N   -0.732858
     6  H    0.344695
     7  S    0.354717
     8  C   -0.348464
     9  C   -0.740495
    10  C    0.681223
    11  C    0.270541
    12  S    1.380714
    13  O   -0.476267
    14  O   -0.503009
    15  H    0.270071
    16  C   -0.582230
    17  C   -0.654567
    18  O   -0.443607
    19  H    0.251467
    20  H    0.289646
    21  H    0.287773
    22  H    0.273367
 Sum of Mulliken charges =  -1.00000

 Dipole moment (field-independent basis, Debye):
    X=             12.3596    Y=              0.8971    Z=              1.9269  Tot=             12.5411
 Quadrupole moment (field-independent basis, Debye-Ang):
   XX=           -173.3475   YY=           -144.5862   ZZ=           -126.4774
   XY=              7.2931   XZ=              6.0467   YZ=             -3.6284

  Exact polarizability:     222.374      13.337     171.973      -6.185      -1.712     117.101
 Approx polarizability:     237.491      13.246     246.543      -8.430      -2.025     165.072

                      1                      2                      3
                      A                      A                      A
 Frequencies --     25.1032                50.0219                76.2390
 Red. masses --     10.1620                 5.7947                 9.9712
 Frc consts  --      0.0038                 0.0085                 0.0341
 IR Inten    --      1.1445                 1.9245                 8.8633

                      4                      5                      6
                      A                      A                      A
 Frequencies --     90.0096               122.7732               152.5118
 Red. masses --     12.7051                10.6439                 7.9922
 Frc consts  --      0.0606                 0.0945                 0.1095
 IR Inten    --      2.4472                 0.0660                 0.4556

                      7                      8                      9
                      A                      A                      A
 Frequencies --    189.7852               203.5017               216.6424
 Red. masses --      7.0867                 4.6046                 8.0026
 Frc consts  --      0.1504                 0.1124                 0.2213
 IR Inten    --      0.2544                 3.4958                 0.5776

                     10                     11                     12
                      A                      A                      A
 Frequencies --    271.4809               298.5601               304.9395
 Red. masses --      5.1885                 5.2240                 8.9809
 Frc consts  --      0.2253                 0.2744                 0.4920
 IR Inten    --      4.5622                 3.5724                 4.8018

                     13                     14                     15
                      A                      A                      A
 Frequencies --    329.5444               346.9340               390.2445
 Red. masses --      7.7175                 6.1816                 7.6513
 Frc consts  --      0.4938                 0.4384                 0.6865
 IR Inten    --      1.8755                12.3800                 8.0548

                     16                     17                     18
                      A                      A                      A
 Frequencies --    442.1380               460.2123               467.4992
 Red. masses --      4.4084                 4.5901                 3.6448
 Frc consts  --      0.5077                 0.5728                 0.4693
 IR Inten    --     88.0820                 9.2749                13.1655

                     19                     20                     21
                      A                      A                      A
 Frequencies --    484.1430               516.0680               538.9373
 Red. masses --      7.7696                 1.6610                 4.7374
 Frc consts  --      1.0730                 0.2606                 0.8107
 IR Inten    --     13.0504                71.0371                36.4305

                     22                     23                     24
                      A                      A                      A
 Frequencies --    551.1558               567.7761               597.6041
 Red. masses --      5.6231                 8.6594                 7.9873
 Frc consts  --      1.0064                 1.6447                 1.6806
 IR Inten    --     11.7939                35.0161                55.3336

                     25                     26                     27
                      A                      A                      A
 Frequencies --    609.4652               649.1663               692.3073
 Red. masses --      5.5157                 5.1461                 5.3510
 Frc consts  --      1.2071                 1.2777                 1.5111
 IR Inten    --    152.9271                33.3403                15.3669

                     28                     29                     30
                      A                      A                      A
 Frequencies --    725.1482               757.7066               843.8209
 Red. masses --      8.2404                 4.0137                 2.7526
 Frc consts  --      2.5530                 1.3577                 1.1548
 IR Inten    --      5.3866                55.2956                16.1923

                     31                     32                     33
                      A                      A                      A
 Frequencies --    873.6495               914.8260               971.4267
 Red. masses --      1.3780                 5.2332                12.3944
 Frc consts  --      0.6197                 2.5805                 6.8912
 IR Inten    --      9.2870               142.6789               213.9120

                     34                     35                     36
                      A                      A                      A
 Frequencies --    979.8187              1011.4107              1030.6041
 Red. masses --      1.9452                 2.7493                 5.4527
 Frc consts  --      1.1003                 1.6570                 3.4123
 IR Inten    --     12.1868                 1.4743                98.7654

                     37                     38                     39
                      A                      A                      A
 Frequencies --   1070.0413              1122.7548              1135.0932
 Red. masses --      2.6291                 1.6122                 4.2097
 Frc consts  --      1.7736                 1.1974                 3.1957
 IR Inten    --      2.7987               169.6989               123.1309

                     40                     41                     42
                      A                      A                      A
 Frequencies --   1160.9055              1168.6622              1174.7431
 Red. masses --      1.5276                 2.1983                 2.2678
 Frc consts  --      1.2129                 1.7689                 1.8440
 IR Inten    --     65.5991               192.0211                65.2285

                     43                     44                     45
                      A                      A                      A
 Frequencies --   1224.8277              1289.8237              1312.3110
 Red. masses --      1.4995                 7.6165                 3.5477
 Frc consts  --      1.3254                 7.4656                 3.5997
 IR Inten    --     61.4798               218.6136               145.1771

                     46                     47                     48
                      A                      A                      A
 Frequencies --   1324.9910              1344.0788              1369.6442
 Red. masses --      2.5666                 2.2318                 2.1573
 Frc consts  --      2.6548                 2.3755                 2.3844
 IR Inten    --    128.2351                56.4797                79.2447

                     49                     50                     51
                      A                      A                      A
 Frequencies --   1382.7056              1469.2865              1474.8799
 Red. masses --      7.0419                 6.8342                 1.0827
 Frc consts  --      7.9323                 8.6926                 1.3876
 IR Inten    --     21.8299               275.0028                 7.2835

                     52                     53                     54
                      A                      A                      A
 Frequencies --   1481.0711              1569.1854              1799.9154
 Red. masses --      1.1021                 8.5099                12.3240
 Frc consts  --      1.4244                12.3459                23.5237
 IR Inten    --      2.7550                43.6376               425.8877

                     55                     56                     57
                      A                      A                      A
 Frequencies --   3090.8682              3112.5411              3152.9697
 Red. masses --      1.0637                 1.0590                 1.1000
 Frc consts  --      5.9872                 6.0449                 6.4431
 IR Inten    --      4.8644                 3.3778                 8.7023

                     58                     59                     60
                      A                      A                      A
 Frequencies --   3176.0157              3273.7203              3516.4337
 Red. masses --      1.1078                 1.0943                 1.0734
 Frc consts  --      6.5838                 6.9097                 7.8203
 IR Inten    --      1.5800                 3.4517                 9.0580

 - Thermochemistry -
 -------------------
 Temperature   298.150 Kelvin.  Pressure   1.00000 Atm.
 Atom     1 has atomic number  6 and mass  12.00000

 Molecular mass:   279.94081 amu.
 Principal axes and moments of inertia in atomic units:
                           1         2         3
     Eigenvalues --  2431.909736886.018908562.22559
           X            0.99993   0.01162   0.00062
           Y           -0.01161   0.99992  -0.00572
           Z           -0.00069   0.00572   0.99998
 This molecule is an asymmetric top.
 Rotational symmetry number  1.
 Warning -- assumption of classical behavior for rotation
           may cause significant error
 Rotational temperatures (Kelvin)      0.03562     0.01258     0.01012
 Rotational constants (GHZ):           0.74211     0.26209     0.21078
 Zero-point vibrational energy     364565.8 (Joules/Mol)
                                   87.13332 (Kcal/Mol)
 Warning -- explicit consideration of  25 degrees of freedom as
           vibrations may cause significant error
 Vibrational temperatures:     36.12    71.97   109.69   129.50   176.64
          (Kelvin)            219.43   273.06   292.79   311.70   390.60
                              429.56   438.74   474.14   499.16   561.47
                              636.14   662.14   672.63   696.57   742.51
                              775.41   792.99   816.90   859.82   876.88
                              934.01   996.08  1043.33  1090.17  1214.07
                             1256.99  1316.23  1397.67  1409.74  1455.19
                             1482.81  1539.55  1615.39  1633.15  1670.28
                             1681.44  1690.19  1762.25  1855.77  1888.12
                             1906.37  1933.83  1970.61  1989.40  2113.98
                             2122.02  2130.93  2257.71  2589.68  4447.07
                             4478.25  4536.42  4569.58  4710.15  5059.36

 Zero-point correction=                           0.138856 (Hartree/Particle)
 Thermal correction to Energy=                    0.153406
 Thermal correction to Enthalpy=                  0.154350
 Thermal correction to Gibbs Free Energy=         0.095732
 Sum of electronic and zero-point Energies=          -1895.228531
 Sum of electronic and thermal Energies=             -1895.213981
 Sum of electronic and thermal Enthalpies=           -1895.213037
 Sum of electronic and thermal Free Energies=        -1895.271655

                     E (Thermal)             CV                S
                      KCal/Mol        Cal/Mol-Kelvin    Cal/Mol-Kelvin
 Total                   96.264             54.127            123.372
 Electronic               0.000              0.000              0.000
 Translational            0.889              2.981             42.786
 Rotational               0.889              2.981             33.327
 Vibrational             94.486             48.165             47.259
 Vibration     1          0.593              1.985              6.183
 Vibration     2          0.595              1.978              4.817
 Vibration     3          0.599              1.965              3.985
 Vibration     4          0.602              1.956              3.660
 Vibration     5          0.610              1.930              3.056
 Vibration     6          0.619              1.900              2.641
 Vibration     7          0.633              1.854              2.230
 Vibration     8          0.639              1.835              2.101
 Vibration     9          0.645              1.816              1.987
 Vibration    10          0.675              1.726              1.587
 Vibration    11          0.692              1.676              1.425
 Vibration    12          0.696              1.664              1.390
 Vibration    13          0.712              1.616              1.262
 Vibration    14          0.725              1.582              1.180
 Vibration    15          0.758              1.491              0.999
 Vibration    16          0.802              1.378              0.820
 Vibration    17          0.818              1.338              0.765
 Vibration    18          0.825              1.322              0.745
 Vibration    19          0.840              1.285              0.699
 Vibration    20          0.871              1.214              0.619
 Vibration    21          0.894              1.164              0.568
 Vibration    22          0.906              1.137              0.542
 Vibration    23          0.924              1.101              0.509
 Vibration    24          0.956              1.037              0.454
 Vibration    25          0.968              1.012              0.434

 Optimization completed.
    -- Stationary point found.
 Normal termination of Gaussian 16 at Fri May 27 10:18:29 2022.
