 Gaussian 16, Revision C.01,
 Gaussian 16:  ES64L-G16RevC.01  3-Jul-2019

 --------------------------------------------------
 #M062X/gen 6D INT(grid=ultrafine) OPT Freq=noraman
 --------------------------------------------------

 ---------
 A.22.freq
 ---------
 Symbolic Z-matrix:
 Charge = -1 Multiplicity = 1

 SCF Done:  E(RM062X) =  -1991.16303034     A.U. after   16 cycles
 SCF Done:  E(RM062X) =  -1991.16750995     A.U. after   14 cycles
 SCF Done:  E(RM062X) =  -1991.16893777     A.U. after   14 cycles
 SCF Done:  E(RM062X) =  -1991.16933830     A.U. after   13 cycles
 SCF Done:  E(RM062X) =  -1991.16950691     A.U. after   13 cycles
 SCF Done:  E(RM062X) =  -1991.16955157     A.U. after   12 cycles
 SCF Done:  E(RM062X) =  -1991.16956645     A.U. after   12 cycles
 SCF Done:  E(RM062X) =  -1991.16957156     A.U. after   11 cycles
 SCF Done:  E(RM062X) =  -1991.16957473     A.U. after   11 cycles
 SCF Done:  E(RM062X) =  -1991.16957567     A.U. after   11 cycles
 SCF Done:  E(RM062X) =  -1991.16957581     A.U. after    9 cycles
 SCF Done:  E(RM062X) =  -1991.16957584     A.U. after    9 cycles
 Optimization completed.
    -- Stationary point found.
 Normal termination of Gaussian 16 at Sun Jun 12 21:43:38 2022.

 ------------------------------------------------------------------
 #N Geom=AllCheck Guess=TCheck SCRF=Check GenChk RM062X/ChkBas Freq
 ------------------------------------------------------------------

 Structure from the checkpoint file:  "/jobfs/43751859.gadi-pbs/Gau-2544656.chk"
 ---------
 A.22.freq
 ---------
 Charge = -1 Multiplicity = 1

                         Standard orientation:
 ---------------------------------------------------------------------
 Center     Atomic      Atomic             Coordinates (Angstroms)
 Number     Number       Type             X           Y           Z
 ---------------------------------------------------------------------
      1          6           0       -2.295610    0.150125   -0.082052
      2         16           0       -4.119597    0.011607   -0.224217
      3          8           0       -4.249636   -1.317462   -0.862989
      4          8           0       -4.542090    0.116684    1.178715
      5          7           0       -4.593523    1.237133   -1.058258
      6          1           0       -4.481558    0.982381   -2.041617
      7         16           0       -1.294882   -1.245895    0.038747
      8          6           0        0.106657   -0.234508    0.245410
      9          6           0       -0.199817    1.111058    0.190618
     10          6           0       -1.597255    1.319172   -0.002925
     11         16           0        1.726242   -0.846071    0.434181
     12          7           0        0.733961    2.146768    0.235608
     13          1           0       -2.080830    2.286311   -0.097323
     14          6           0        2.670248    0.655606    0.018556
     15          6           0        2.046483    1.830101    0.772025
     16          8           0        2.030828   -1.157713    1.838151
     17          8           0        1.999675   -1.889483   -0.561144
     18          6           0        4.135415    0.430498    0.394299
     19          6           0        4.903644   -0.379388   -0.647558
     20          8           0        4.983430    0.298072   -1.894232
     21          1           0        0.341111    3.008585    0.595037
     22          1           0        2.555317    0.793385   -1.062911
     23          1           0        2.690096    2.705420    0.635317
     24          1           0        2.016494    1.585462    1.847389
     25          1           0        4.191860   -0.062648    1.372497
     26          1           0        4.618412    1.413562    0.505360
     27          1           0        4.390545   -1.320886   -0.854664
     28          1           0        5.909568   -0.608046   -0.268031
     29          1           0        5.481460    1.118151   -1.770114
 ---------------------------------------------------------------------

 SCF Done:  E(RM062X) =  -1991.16957584     A.U. after    1 cycles

 The electronic state is 1-A.
 Alpha  occ. eigenvalues --  -90.05373 -89.99348 -89.86043 -19.58883 -19.54666
 Alpha  occ. eigenvalues --  -19.54580 -19.47134 -19.46910 -14.71004 -14.57790
 Alpha  occ. eigenvalues --  -10.53250 -10.53019 -10.52154 -10.51667 -10.49884
 Alpha  occ. eigenvalues --  -10.49546 -10.48447 -10.45596  -8.36725  -8.30114
 Alpha  occ. eigenvalues --   -8.20318  -6.28872  -6.28832  -6.28814  -6.22319
 Alpha  occ. eigenvalues --   -6.22314  -6.22205  -6.12342  -6.12093  -6.11823
 Alpha  occ. eigenvalues --   -1.13597  -1.08760  -1.06519  -1.02474  -0.98702
 Alpha  occ. eigenvalues --   -0.94789  -0.88554  -0.85399  -0.82124  -0.77849
 Alpha  occ. eigenvalues --   -0.75597  -0.72694  -0.66514  -0.66191  -0.61723
 Alpha  occ. eigenvalues --   -0.58754  -0.54527  -0.52767  -0.52387  -0.50809
 Alpha  occ. eigenvalues --   -0.49365  -0.47950  -0.46087  -0.45900  -0.44815
 Alpha  occ. eigenvalues --   -0.43283  -0.42872  -0.41385  -0.40036  -0.38901
 Alpha  occ. eigenvalues --   -0.38081  -0.37363  -0.37139  -0.36716  -0.35875
 Alpha  occ. eigenvalues --   -0.33511  -0.31366  -0.31078  -0.30612  -0.29001
 Alpha  occ. eigenvalues --   -0.28713  -0.28195  -0.27341  -0.26301  -0.23981
 Alpha  occ. eigenvalues --   -0.23211  -0.20799  -0.19483  -0.17987  -0.17292
 Alpha  occ. eigenvalues --   -0.15513
 Alpha virt. eigenvalues --    0.06340   0.07777   0.09034   0.09785   0.10198
 Alpha virt. eigenvalues --    0.11954   0.12055   0.12419   0.13570   0.13747
 Alpha virt. eigenvalues --    0.14726   0.15033   0.15689   0.15964   0.16257

 Mulliken charges:
               1
     1  C   -1.662311
     2  S    1.728564
     3  O   -0.627835
     4  O   -0.541363
     5  N   -0.817341
     6  H    0.346005
     7  S    0.399635
     8  C   -0.195416
     9  C    0.065229
    10  C   -0.137187
    11  S    1.434874
    12  N   -0.496859
    13  H    0.245636
    14  C   -1.026093
    15  C   -0.053105
    16  O   -0.451997
    17  O   -0.519586
    18  C   -0.382303
    19  C   -0.274653
    20  O   -0.618927
    21  H    0.415239
    22  H    0.316722
    23  H    0.205345
    24  H    0.267211
    25  H    0.278455
    26  H    0.196249
    27  H    0.263813
    28  H    0.180759
    29  H    0.461240
 Sum of Mulliken charges =  -1.00000

 Dipole moment (field-independent basis, Debye):
    X=             17.0765    Y=              6.3137    Z=              0.5581  Tot=             18.2148
 Quadrupole moment (field-independent basis, Debye-Ang):
   XX=           -213.7461   YY=           -137.0184   ZZ=           -146.2377
   XY=             16.4845   XZ=              6.2840   YZ=              2.0647

  Exact polarizability:     248.954      -1.066     177.776      10.753      -0.932     137.829
 Approx polarizability:     245.023      -2.026     255.839      10.491      -0.895     191.816

                      1                      2                      3
                      A                      A                      A
 Frequencies --     21.2064                24.7590                39.1286
 Red. masses --      9.1920                 7.1265                 6.0521
 Frc consts  --      0.0024                 0.0026                 0.0055
 IR Inten    --      1.9222                 0.6885                 1.9577

                      4                      5                      6
                      A                      A                      A
 Frequencies --     66.1273                84.8348                96.8496
 Red. masses --     14.1572                 5.7173                 7.6977
 Frc consts  --      0.0365                 0.0242                 0.0425
 IR Inten    --      2.1166                 0.6256                 0.9298

                      7                      8                      9
                      A                      A                      A
 Frequencies --    130.4522               170.8989               180.7277
 Red. masses --      5.6660                 3.3895                 6.0979
 Frc consts  --      0.0568                 0.0583                 0.1173
 IR Inten    --      2.2236                 6.2933                 0.3865

                     10                     11                     12
                      A                      A                      A
 Frequencies --    205.3503               230.9339               238.0771
 Red. masses --      4.8945                 5.8792                 4.5318
 Frc consts  --      0.1216                 0.1847                 0.1513
 IR Inten    --      1.0627                 5.2477                 0.6209

                     13                     14                     15
                      A                      A                      A
 Frequencies --    240.3772               284.1440               294.3134
 Red. masses --      8.1686                 3.9198                 3.2885
 Frc consts  --      0.2781                 0.1865                 0.1678
 IR Inten    --     12.9343                18.0551                18.9945

                     16                     17                     18
                      A                      A                      A
 Frequencies --    302.7547               326.9218               357.9579
 Red. masses --      1.6796                10.5797                 2.4911
 Frc consts  --      0.0907                 0.6662                 0.1881
 IR Inten    --    155.0130                 2.4170                17.0270

                     19                     20                     21
                      A                      A                      A
 Frequencies --    388.9688               416.8990               439.1983
 Red. masses --      4.1304                 3.2660                 4.0939
 Frc consts  --      0.3682                 0.3344                 0.4653
 IR Inten    --     20.0205                39.4484                 8.0985

                     22                     23                     24
                      A                      A                      A
 Frequencies --    458.6963               501.1714               507.4723
 Red. masses --      4.3234                 2.6322                 4.2667
 Frc consts  --      0.5359                 0.3895                 0.6474
 IR Inten    --      4.5698                52.7995                14.7544

                     25                     26                     27
                      A                      A                      A
 Frequencies --    510.9659               519.4519               534.0598
 Red. masses --      1.8740                 3.9207                 3.0605
 Frc consts  --      0.2883                 0.6233                 0.5143
 IR Inten    --     55.3780                68.6450                25.4502

                     28                     29                     30
                      A                      A                      A
 Frequencies --    554.4100               582.7843               598.0496
 Red. masses --      5.4884                 5.5375                16.9512
 Frc consts  --      0.9939                 1.1081                 3.5721
 IR Inten    --     44.8828                52.6855               256.2970

                     31                     32                     33
                      A                      A                      A
 Frequencies --    623.0087               673.2489               683.4005
 Red. masses --      4.0406                 4.3936                 3.7013
 Frc consts  --      0.9240                 1.1733                 1.0185
 IR Inten    --     51.7374                 0.6014               121.0302

                     34                     35                     36
                      A                      A                      A
 Frequencies --    708.2611               736.2931               853.9283
 Red. masses --      5.9268                 4.5751                 1.4803
 Frc consts  --      1.7517                 1.4614                 0.6360
 IR Inten    --     27.6654                24.2109                18.5955

                     37                     38                     39
                      A                      A                      A
 Frequencies --    869.5913               926.1545               954.3945
 Red. masses --      1.7313                 2.1374                 4.3389
 Frc consts  --      0.7714                 1.0802                 2.3285
 IR Inten    --      3.3138                 8.5523                19.4117

                     40                     41                     42
                      A                      A                      A
 Frequencies --    971.0383              1007.3229              1046.2546
 Red. masses --      4.5755                 2.9884                 1.7326
 Frc consts  --      2.5419                 1.7866                 1.1174
 IR Inten    --    221.9377               169.7350                44.1269

                     43                     44                     45
                      A                      A                      A
 Frequencies --   1065.7781              1073.9818              1093.1038
 Red. masses --      3.1956                 6.1936                 3.0379
 Frc consts  --      2.1386                 4.2091                 2.1387
 IR Inten    --     18.5561                43.2303                21.7214

                     46                     47                     48
                      A                      A                      A
 Frequencies --   1119.9088              1122.9348              1127.0167
 Red. masses --      3.0346                 1.5435                 2.2446
 Frc consts  --      2.2425                 1.1467                 1.6798
 IR Inten    --      6.5953               142.7429                24.7053

                     49                     50                     51
                      A                      A                      A
 Frequencies --   1136.2601              1155.4634              1168.9293
 Red. masses --      5.0256                 2.3783                 3.4476
 Frc consts  --      3.8229                 1.8708                 2.7755
 IR Inten    --    145.4202                41.9903               148.7365

                     52                     53                     54
                      A                      A                      A
 Frequencies --   1178.7002              1216.3553              1241.7266
 Red. masses --      1.5872                 1.9174                 1.2798
 Frc consts  --      1.2992                 1.6714                 1.1627
 IR Inten    --    159.6707                46.2164                10.9189

                     55                     56                     57
                      A                      A                      A
 Frequencies --   1253.0299              1284.0432              1293.9706
 Red. masses --      1.5040                 7.3117                 5.1460
 Frc consts  --      1.3913                 7.1028                 5.0766
 IR Inten    --     25.1791               203.1700               214.8870

                     58                     59                     60
                      A                      A                      A
 Frequencies --   1311.8030              1353.3468              1375.0675
 Red. masses --      1.2679                 1.3347                 1.6968
 Frc consts  --      1.2855                 1.4403                 1.8903
 IR Inten    --     10.4274                25.4728                 1.4240

                     61                     62                     63
                      A                      A                      A
 Frequencies --   1386.8977              1406.8282              1417.2728
 Red. masses --      1.2977                 1.6073                 1.9676
 Frc consts  --      1.4707                 1.8743                 2.3286
 IR Inten    --      9.1884                 8.1468               112.9098

                     64                     65                     66
                      A                      A                      A
 Frequencies --   1439.4072              1500.1380              1510.9514
 Red. masses --      1.3056                 1.0921                 2.1626
 Frc consts  --      1.5938                 1.4480                 2.9089
 IR Inten    --     28.3636                 8.5391                11.5411

                     67                     68                     69
                      A                      A                      A
 Frequencies --   1521.5585              1533.1293              1545.4144
 Red. masses --      1.7624                 1.0844                 2.0062
 Frc consts  --      2.4040                 1.5018                 2.8230
 IR Inten    --     28.4579                 4.4331               111.5357

                     70                     71                     72
                      A                      A                      A
 Frequencies --   1637.8223              3020.8047              3039.2497
 Red. masses --      6.6184                 1.0690                 1.0700
 Frc consts  --     10.4601                 5.7476                 5.8233
 IR Inten    --     81.6063                38.2319                41.6287

                     73                     74                     75
                      A                      A                      A
 Frequencies --   3052.9300              3112.9185              3114.9492
 Red. masses --      1.0712                 1.0913                 1.0918
 Frc consts  --      5.8826                 6.2307                 6.2417
 IR Inten    --    105.0349                36.3626                 4.7271

                     76                     77                     78
                      A                      A                      A
 Frequencies --   3127.1955              3169.6800              3249.2270
 Red. masses --      1.0885                 1.0958                 1.0935
 Frc consts  --      6.2715                 6.4864                 6.8018
 IR Inten    --      3.2933                 3.0654                 1.6505

                     79                     80                     81
                      A                      A                      A
 Frequencies --   3509.5684              3612.2796              3815.1650
 Red. masses --      1.0732                 1.0762                 1.0665
 Frc consts  --      7.7883                 8.2741                 9.1458
 IR Inten    --      7.8151                19.1757                21.3406

 - Thermochemistry -
 -------------------
 Temperature   298.150 Kelvin.  Pressure   1.00000 Atm.
 Atom     1 has atomic number  6 and mass  12.00000

 Molecular mass:   310.98301 amu.
 Principal axes and moments of inertia in atomic units:
                           1         2         3
     Eigenvalues --  2103.03033********************
           X            0.99999   0.00310   0.00189
           Y           -0.00313   0.99983   0.01826
           Z           -0.00183  -0.01827   0.99983
 This molecule is an asymmetric top.
 Rotational symmetry number  1.
 Warning -- assumption of classical behavior for rotation
           may cause significant error
 Rotational temperatures (Kelvin)      0.04119     0.00750     0.00711
 Rotational constants (GHZ):           0.85816     0.15622     0.14809
 Zero-point vibrational energy     548222.5 (Joules/Mol)
                                  131.02832 (Kcal/Mol)
 Warning -- explicit consideration of  30 degrees of freedom as
           vibrations may cause significant error
 Vibrational temperatures:     30.51    35.62    56.30    95.14   122.06
          (Kelvin)            139.34   187.69   245.89   260.03   295.45
                              332.26   342.54   345.85   408.82   423.45
                              435.60   470.37   515.02   559.64   599.82
                              631.91   659.96   721.07   730.14   735.17
                              747.38   768.39   797.67   838.50   860.46
                              896.37   968.66   983.26  1019.03  1059.36
                             1228.61  1251.15  1332.53  1373.16  1397.11
                             1449.31  1505.33  1533.42  1545.22  1572.73
                             1611.30  1615.65  1621.53  1634.82  1662.45
                             1681.83  1695.89  1750.06  1786.57  1802.83
                             1847.45  1861.74  1887.39  1947.16  1978.42
                             1995.44  2024.11  2039.14  2070.99  2158.36
                             2173.92  2189.18  2205.83  2223.51  2356.46
                             4346.26  4372.80  4392.49  4478.80  4481.72
                             4499.34  4560.46  4674.91  5049.49  5197.26
                             5489.17

 Zero-point correction=                           0.208807 (Hartree/Particle)
 Thermal correction to Energy=                    0.226592
 Thermal correction to Enthalpy=                  0.227536
 Thermal correction to Gibbs Free Energy=         0.160894
 Sum of electronic and zero-point Energies=          -1990.960769
 Sum of electronic and thermal Energies=             -1990.942984
 Sum of electronic and thermal Enthalpies=           -1990.942040
 Sum of electronic and thermal Free Energies=        -1991.008682

                     E (Thermal)             CV                S
                      KCal/Mol        Cal/Mol-Kelvin    Cal/Mol-Kelvin
 Total                  142.188             65.923            140.259
 Electronic               0.000              0.000              0.000
 Translational            0.889              2.981             43.100
 Rotational               0.889              2.981             34.048
 Vibrational            140.411             59.961             63.111
 Vibration     1          0.593              1.985              6.518
 Vibration     2          0.593              1.985              6.210
 Vibration     3          0.594              1.981              5.303
 Vibration     4          0.598              1.970              4.265
 Vibration     5          0.601              1.960              3.776
 Vibration     6          0.603              1.951              3.517
 Vibration     7          0.612              1.923              2.939
 Vibration     8          0.626              1.878              2.426
 Vibration     9          0.630              1.866              2.321
 Vibration    10          0.640              1.832              2.085
 Vibration    11          0.653              1.794              1.872
 Vibration    12          0.656              1.782              1.817
 Vibration    13          0.657              1.779              1.800
 Vibration    14          0.683              1.703              1.509
 Vibration    15          0.689              1.684              1.449
 Vibration    16          0.694              1.668              1.402
 Vibration    17          0.711              1.622              1.275
 Vibration    18          0.733              1.559              1.131
 Vibration    19          0.757              1.494              1.004
 Vibration    20          0.780              1.434              0.903
 Vibration    21          0.799              1.385              0.829
 Vibration    22          0.817              1.342              0.770
 Vibration    23          0.857              1.247              0.655
 Vibration    24          0.863              1.233              0.640
 Vibration    25          0.866              1.226              0.631
 Vibration    26          0.874              1.207              0.611
 Vibration    27          0.889              1.175              0.578
 Vibration    28          0.910              1.130              0.535
 Vibration    29          0.940              1.069              0.480
 Vibration    30          0.956              1.036              0.453

                           ! Non-Optimized Parameters !
 Normal termination of Gaussian 16 at Sun Jun 12 21:55:27 2022.
