 Gaussian 16, Revision C.01,
 Gaussian 16:  ES64L-G16RevC.01  3-Jul-2019

 --------------------------------------------------
 #M062X/gen 6D INT(grid=ultrafine) OPT Freq=noraman
 --------------------------------------------------

 ---------
 A.23.freq
 ---------
 Symbolic Z-matrix:
 Charge = -1 Multiplicity = 1

 SCF Done:  E(RM062X) =  -1243.57324748     A.U. after   15 cycles
 SCF Done:  E(RM062X) =  -1243.57556836     A.U. after   14 cycles
 SCF Done:  E(RM062X) =  -1243.57640585     A.U. after   13 cycles
 SCF Done:  E(RM062X) =  -1243.57669439     A.U. after   13 cycles
 SCF Done:  E(RM062X) =  -1243.57679286     A.U. after   13 cycles
 SCF Done:  E(RM062X) =  -1243.57683214     A.U. after   12 cycles
 SCF Done:  E(RM062X) =  -1243.57687217     A.U. after   12 cycles
 SCF Done:  E(RM062X) =  -1243.57687987     A.U. after   12 cycles
 SCF Done:  E(RM062X) =  -1243.57688176     A.U. after   10 cycles
 SCF Done:  E(RM062X) =  -1243.57688258     A.U. after   10 cycles
 SCF Done:  E(RM062X) =  -1243.57688276     A.U. after   10 cycles
 SCF Done:  E(RM062X) =  -1243.57688302     A.U. after   10 cycles
 SCF Done:  E(RM062X) =  -1243.57688314     A.U. after   10 cycles
 SCF Done:  E(RM062X) =  -1243.57688318     A.U. after    9 cycles
 Optimization completed.
    -- Stationary point found.
 Normal termination of Gaussian 16 at Thu Jun 23 14:57:06 2022.

 ------------------------------------------------------------------
 #N Geom=AllCheck Guess=TCheck SCRF=Check GenChk RM062X/ChkBas Freq
 ------------------------------------------------------------------

 Structure from the checkpoint file:  "/jobfs/45190772.gadi-pbs/Gau-319470.chk"
 ---------
 A.23.freq
 ---------
 Charge = -1 Multiplicity = 1

                         Standard orientation:
 ---------------------------------------------------------------------
 Center     Atomic      Atomic             Coordinates (Angstroms)
 Number     Number       Type             X           Y           Z
 ---------------------------------------------------------------------
      1          6           0        0.037639    0.276980   -0.001807
      2          6           0       -2.333520    0.124464   -0.014029
      3          7           0       -3.689023   -0.196068   -0.089707
      4         16           0       -1.079457   -1.075863   -0.038003
      5         16           0        1.854003   -0.048756    0.021789
      6          8           0        2.229778    0.460859    1.355799
      7          8           0        1.833431   -1.513827   -0.144169
      8          7           0        2.491747    0.660379   -1.200643
      9          1           0        2.629415    1.636941   -0.932853
     10          7           0       -0.539421    1.426274   -0.000749
     11          7           0       -1.912491    1.353369    0.002603
     12          1           0       -3.958808   -0.965116    0.512848
     13          1           0       -4.249406    0.629481    0.100880
 ---------------------------------------------------------------------

 SCF Done:  E(RM062X) =  -1243.57688318     A.U. after    1 cycles

 The electronic state is 1-A.
 Alpha  occ. eigenvalues --  -89.98475 -89.84891 -19.46256 -19.46255 -14.69623
 Alpha  occ. eigenvalues --  -14.67282 -14.67154 -14.56822 -10.54070 -10.49139
 Alpha  occ. eigenvalues --   -8.29251  -8.19435  -6.21460  -6.21447  -6.21335
 Alpha  occ. eigenvalues --   -6.11419  -6.11207  -6.10950  -1.05806  -1.02936
 Alpha  occ. eigenvalues --   -0.94042  -0.93918  -0.81416  -0.79287  -0.77154
 Alpha  occ. eigenvalues --   -0.59996  -0.56383  -0.52484  -0.48620  -0.46018
 Alpha  occ. eigenvalues --   -0.41073  -0.39727  -0.39269  -0.37399  -0.35543
 Alpha  occ. eigenvalues --   -0.30974  -0.26974  -0.26515  -0.23379  -0.23087
 Alpha  occ. eigenvalues --   -0.21959  -0.21225  -0.20325  -0.18237  -0.17033
 Alpha  occ. eigenvalues --   -0.14372
 Alpha virt. eigenvalues --    0.08788   0.12660   0.13078   0.14636   0.16041
 Alpha virt. eigenvalues --    0.16426   0.16830   0.18322   0.18653   0.19263
 Alpha virt. eigenvalues --    0.19422   0.20315   0.21450   0.21821   0.23203

 Mulliken charges:
               1
     1  C   -0.820822
     2  C   -0.203801
     3  N   -0.726662
     4  S    0.618835
     5  S    1.388467
     6  O   -0.590200
     7  O   -0.690466
     8  N   -0.807850
     9  H    0.346613
    10  N   -0.019945
    11  N   -0.278855
    12  H    0.381737
    13  H    0.402947
 Sum of Mulliken charges =  -1.00000

 Dipole moment (field-independent basis, Debye):
    X=             -9.2982    Y=             -1.1381    Z=              1.3413  Tot=              9.4631
 Quadrupole moment (field-independent basis, Debye-Ang):
   XX=            -91.4911   YY=            -84.3994   ZZ=            -85.3805
   XY=              8.3671   XZ=             -4.4093   YZ=             -2.6158

  Exact polarizability:     136.757       4.574      98.406      -3.948      -1.292      75.128
 Approx polarizability:     145.472       5.127     146.625      -3.399      -0.237      99.695

                      1                      2                      3
                      A                      A                      A
 Frequencies --     18.1445               100.4767               134.8855
 Red. masses --      9.9968                 8.0018                 7.9929
 Frc consts  --      0.0019                 0.0476                 0.0857
 IR Inten    --      3.4993                 1.3383                 8.9569

                      4                      5                      6
                      A                      A                      A
 Frequencies --    224.6455               252.0291               258.6192
 Red. masses --      6.7761                 6.6909                 1.1185
 Frc consts  --      0.2015                 0.2504                 0.0441
 IR Inten    --      3.0875                 3.1398                39.8726

                      7                      8                      9
                      A                      A                      A
 Frequencies --    304.7578               377.6313               388.5241
 Red. masses --      5.6515                 5.3095                 5.5967
 Frc consts  --      0.3093                 0.4461                 0.4978
 IR Inten    --      7.0457                 2.7005                12.7508

                     10                     11                     12
                      A                      A                      A
 Frequencies --    464.7335               509.3797               517.0463
 Red. masses --      3.3042                11.6158                 1.6470
 Frc consts  --      0.4205                 1.7757                 0.2594
 IR Inten    --     46.3699                19.5297                57.5371

                     13                     14                     15
                      A                      A                      A
 Frequencies --    580.3244               598.3409               623.7837
 Red. masses --     10.8329                 6.5877                14.1467
 Frc consts  --      2.1495                 1.3896                 3.2432
 IR Inten    --    181.8138                19.4162                78.8083

                     16                     17                     18
                      A                      A                      A
 Frequencies --    631.1920               702.0011               766.0127
 Red. masses --     12.2912                 6.1573                 4.6499
 Frc consts  --      2.8852                 1.7878                 1.6076
 IR Inten    --     38.4394                 4.2472                98.3346

                     19                     20                     21
                      A                      A                      A
 Frequencies --    795.0520               971.2586              1061.2767
 Red. masses --      1.9794                14.0301                 9.9190
 Frc consts  --      0.7372                 7.7980                 6.5823
 IR Inten    --    167.6664               188.5997                52.9512

                     22                     23                     24
                      A                      A                      A
 Frequencies --   1095.9418              1122.0576              1178.2877
 Red. masses --      2.9360                 1.6781                 4.5450
 Frc consts  --      2.0777                 1.2448                 3.7178
 IR Inten    --      6.6357               198.6936               166.7953

                     25                     26                     27
                      A                      A                      A
 Frequencies --   1182.7560              1276.1899              1367.5406
 Red. masses --      3.3238                 6.6584                 3.3782
 Frc consts  --      2.7395                 6.3893                 3.7223
 IR Inten    --     41.3663               244.9938               110.6072

                     28                     29                     30
                      A                      A                      A
 Frequencies --   1572.6216              1580.4554              1675.0240
 Red. masses --     10.7797                 5.2975                 1.2391
 Frc consts  --     15.7074                 7.7963                 2.0483
 IR Inten    --      5.2582               111.0385               109.5677

                     31                     32                     33
                      A                      A                      A
 Frequencies --   3516.0707              3553.7235              3658.5904
 Red. masses --      1.0731                 1.0486                 1.0966
 Frc consts  --      7.8162                 7.8024                 8.6481
 IR Inten    --      8.8076                15.3050                22.7718

 - Thermochemistry -
 -------------------
 Temperature   298.150 Kelvin.  Pressure   1.00000 Atm.
 Atom     1 has atomic number  6 and mass  12.00000

 Molecular mass:   178.96974 amu.
 Principal axes and moments of inertia in atomic units:
                           1         2         3
     Eigenvalues --   693.551692752.064913080.14667
           X            0.99993   0.00917  -0.00741
           Y           -0.00933   0.99972  -0.02152
           Z            0.00721   0.02158   0.99974
 This molecule is an asymmetric top.
 Rotational symmetry number  1.
 Warning -- assumption of classical behavior for rotation
           may cause significant error
 Rotational temperatures (Kelvin)      0.12488     0.03147     0.02812
 Rotational constants (GHZ):           2.60217     0.65578     0.58593
 Zero-point vibrational energy     197739.0 (Joules/Mol)
                                   47.26075 (Kcal/Mol)
 Warning -- explicit consideration of  14 degrees of freedom as
           vibrations may cause significant error
 Vibrational temperatures:     26.11   144.56   194.07   323.21   362.61
          (Kelvin)            372.10   438.48   543.33   559.00   668.65
                              732.88   743.91   834.96   860.88   897.49
                              908.14  1010.02  1102.12  1143.90  1397.42
                             1526.94  1576.82  1614.39  1695.29  1701.72
                             1836.15  1967.59  2262.65  2273.92  2409.99
                             5058.84  5113.02  5263.90

 Zero-point correction=                           0.075315 (Hartree/Particle)
 Thermal correction to Energy=                    0.084771
 Thermal correction to Enthalpy=                  0.085716
 Thermal correction to Gibbs Free Energy=         0.038928
 Sum of electronic and zero-point Energies=          -1243.501568
 Sum of electronic and thermal Energies=             -1243.492112
 Sum of electronic and thermal Enthalpies=           -1243.491168
 Sum of electronic and thermal Free Energies=        -1243.537955

                     E (Thermal)             CV                S
                      KCal/Mol        Cal/Mol-Kelvin    Cal/Mol-Kelvin
 Total                   53.195             33.961             98.473
 Electronic               0.000              0.000              0.000
 Translational            0.889              2.981             41.453
 Rotational               0.889              2.981             30.154
 Vibrational             51.417             28.000             26.866
 Vibration     1          0.593              1.986              6.828
 Vibration     2          0.604              1.949              3.445
 Vibration     3          0.613              1.919              2.875
 Vibration     4          0.649              1.804              1.921
 Vibration     5          0.664              1.759              1.716
 Vibration     6          0.667              1.748              1.671
 Vibration     7          0.696              1.665              1.391
 Vibration     8          0.748              1.518              1.049
 Vibration     9          0.757              1.495              1.006
 Vibration    10          0.822              1.328              0.752
 Vibration    11          0.865              1.229              0.635
 Vibration    12          0.872              1.212              0.617
 Vibration    13          0.937              1.074              0.485
 Vibration    14          0.956              1.035              0.453

 Optimization completed.
    -- Stationary point found.
 Normal termination of Gaussian 16 at Thu Jun 23 14:58:48 2022.
