 Gaussian 16, Revision C.01,
 Gaussian 16:  ES64L-G16RevC.01  3-Jul-2019

 --------------------------------------------------
 #M062X/gen 6D INT(grid=ultrafine) OPT Freq=noraman
 --------------------------------------------------

 ---------
 A.24.freq
 ---------
 Symbolic Z-matrix:
 Charge = -1 Multiplicity = 1

 SCF Done:  E(RM062X) =  -1325.81358753     A.U. after   16 cycles
 SCF Done:  E(RM062X) =  -1325.81520681     A.U. after   14 cycles
 SCF Done:  E(RM062X) =  -1325.81565535     A.U. after   14 cycles
 SCF Done:  E(RM062X) =  -1325.81571034     A.U. after   12 cycles
 SCF Done:  E(RM062X) =  -1325.81572448     A.U. after   12 cycles
 SCF Done:  E(RM062X) =  -1325.81573016     A.U. after   11 cycles
 SCF Done:  E(RM062X) =  -1325.81573224     A.U. after   11 cycles
 SCF Done:  E(RM062X) =  -1325.81573279     A.U. after   10 cycles
 Optimization completed.
    -- Stationary point found.
 Normal termination of Gaussian 16 at Thu Jun 23 16:28:06 2022.

 ------------------------------------------------------------------
 #N Geom=AllCheck Guess=TCheck SCRF=Check GenChk RM062X/ChkBas Freq
 ------------------------------------------------------------------

 Structure from the checkpoint file:  "/jobfs/45202647.gadi-pbs/Gau-761245.chk"
 ---------
 A.24.freq
 ---------
 Charge = -1 Multiplicity = 1

                         Standard orientation:
 ---------------------------------------------------------------------
 Center     Atomic      Atomic             Coordinates (Angstroms)
 Number     Number       Type             X           Y           Z
 ---------------------------------------------------------------------
      1          6           0       -0.702327   -0.100295   -0.037186
      2          6           0        1.613802    0.675985    0.006375
      3         16           0        0.073966    1.485403   -0.003755
      4         16           0       -2.544638   -0.157548   -0.010346
      5          8           0       -2.839477    1.286222    0.006537
      6          8           0       -2.839775   -0.885822   -1.260094
      7          7           0       -2.971261   -0.846142    1.314281
      8          1           0       -2.904256   -1.853189    1.153120
      9          7           0        0.081063   -1.120608   -0.037440
     10          6           0        1.406789   -0.722577   -0.014768
     11          6           0        2.906149    1.209137    0.031365
     12          6           0        3.987585    0.336319    0.032558
     13          6           0        3.789001   -1.054985    0.009781
     14          6           0        2.508344   -1.588530   -0.014034
     15          1           0        3.061497    2.284331    0.048913
     16          1           0        4.998131    0.735715    0.051109
     17          1           0        4.649618   -1.718479    0.010618
     18          1           0        2.335111   -2.660326   -0.032122
 ---------------------------------------------------------------------

 SCF Done:  E(RM062X) =  -1325.81573279     A.U. after    1 cycles

 The electronic state is 1-A.
 Alpha  occ. eigenvalues --  -89.98567 -89.84443 -19.46530 -19.46459 -14.65525
 Alpha  occ. eigenvalues --  -14.57128 -10.50537 -10.48840 -10.48668 -10.47426
 Alpha  occ. eigenvalues --  -10.47035 -10.46851 -10.46509  -8.29367  -8.18865
 Alpha  occ. eigenvalues --   -6.21572  -6.21562  -6.21451  -6.10858  -6.10639
 Alpha  occ. eigenvalues --   -6.10380  -1.05984  -0.96736  -0.94261  -0.86117
 Alpha  occ. eigenvalues --   -0.81392  -0.79227  -0.74458  -0.72212  -0.61903
 Alpha  occ. eigenvalues --   -0.58222  -0.57339  -0.51138  -0.46569  -0.45445
 Alpha  occ. eigenvalues --   -0.45310  -0.41426  -0.40631  -0.39118  -0.38461
 Alpha  occ. eigenvalues --   -0.36777  -0.35726  -0.33693  -0.31438  -0.29498
 Alpha  occ. eigenvalues --   -0.26729  -0.25889  -0.24777  -0.23128  -0.21982
 Alpha  occ. eigenvalues --   -0.20622  -0.18639  -0.18274  -0.17204  -0.14573
 Alpha virt. eigenvalues --    0.08886   0.09605   0.10368   0.11036   0.11678
 Alpha virt. eigenvalues --    0.13204   0.14005   0.15003   0.15620   0.16149
 Alpha virt. eigenvalues --    0.16280   0.16958   0.17528   0.18074   0.19003

 Mulliken charges:
               1
     1  C   -0.705189
     2  C    0.403293
     3  S    0.422022
     4  S    1.674154
     5  O   -0.646020
     6  O   -0.566611
     7  N   -0.777441
     8  H    0.347443
     9  N   -0.090447
    10  C   -0.427220
    11  C   -0.260952
    12  C   -0.098336
    13  C   -0.258519
    14  C   -0.796247
    15  H    0.201373
    16  H    0.182884
    17  H    0.185055
    18  H    0.210757
 Sum of Mulliken charges =  -1.00000

 Dipole moment (field-independent basis, Debye):
    X=             11.5302    Y=              0.3507    Z=             -0.1197  Tot=             11.5362
 Quadrupole moment (field-independent basis, Debye-Ang):
   XX=           -131.6203   YY=            -94.7438   ZZ=           -104.8122
   XY=              2.3396   XZ=              1.1315   YZ=             -1.9629

  Exact polarizability:     212.178      -0.389     142.105      -4.141      -1.376      93.019
 Approx polarizability:     234.175      -3.213     208.554      -3.131      -0.108     125.828

                      1                      2                      3
                      A                      A                      A
 Frequencies --     29.1488                75.3656               122.6333
 Red. masses --      7.7638                 8.3123                 8.0972
 Frc consts  --      0.0039                 0.0278                 0.0717
 IR Inten    --      0.7507                 0.6540                 4.3275

                      4                      5                      6
                      A                      A                      A
 Frequencies --    188.6358               204.8097               236.5659
 Red. masses --      6.3142                 6.2980                10.2976
 Frc consts  --      0.1324                 0.1557                 0.3395
 IR Inten    --      0.0141                 1.8010                 1.1000

                      7                      8                      9
                      A                      A                      A
 Frequencies --    281.9475               338.3841               387.1087
 Red. masses --      5.7012                 7.8357                 6.0162
 Frc consts  --      0.2670                 0.5286                 0.5312
 IR Inten    --      9.0801                 0.0716                 6.0731

                     10                     11                     12
                      A                      A                      A
 Frequencies --    439.7723               465.3204               494.0194
 Red. masses --      3.1948                 3.7533                11.4293
 Frc consts  --      0.3640                 0.4788                 1.6434
 IR Inten    --      6.5722                32.7174                10.9539

                     13                     14                     15
                      A                      A                      A
 Frequencies --    515.0241               520.7500               560.0327
 Red. masses --      6.4671                 1.5810                 6.2765
 Frc consts  --      1.0107                 0.2526                 1.1598
 IR Inten    --      6.7142                61.5691                31.6892

                     16                     17                     18
                      A                      A                      A
 Frequencies --    569.2099               614.0793               636.6167
 Red. masses --      7.3657                12.8307                 8.0474
 Frc consts  --      1.4061                 2.8507                 1.9216
 IR Inten    --     49.5950               184.2307                20.4806

                     19                     20                     21
                      A                      A                      A
 Frequencies --    682.4044               725.5630               736.2524
 Red. masses --     10.6720                 6.7967                 2.9327
 Frc consts  --      2.9281                 2.1081                 0.9366
 IR Inten    --     11.0502                 0.6051                13.2585

                     22                     23                     24
                      A                      A                      A
 Frequencies --    771.2918               865.8104               872.3685
 Red. masses --      1.5471                 6.6399                 1.3781
 Frc consts  --      0.5422                 2.9326                 0.6179
 IR Inten    --     63.0668                12.1090                 0.9847

                     25                     26                     27
                      A                      A                      A
 Frequencies --    958.5296               962.0745               993.5704
 Red. masses --      1.3760                12.3437                 1.2683
 Frc consts  --      0.7449                 6.7315                 0.7377
 IR Inten    --      1.9491               194.9173                 0.0144

                     28                     29                     30
                      A                      A                      A
 Frequencies --   1018.8844              1053.5307              1105.9614
 Red. masses --     10.8994                 1.9959                 3.8775
 Frc consts  --      6.6666                 1.3052                 2.7944
 IR Inten    --     81.3148                15.5201                23.3622

                     31                     32                     33
                      A                      A                      A
 Frequencies --   1123.5850              1152.7038              1176.0950
 Red. masses --      1.7335                 1.3726                 4.6782
 Frc consts  --      1.2894                 1.0746                 3.8126
 IR Inten    --    187.9325                 7.7330               198.8612

                     34                     35                     36
                      A                      A                      A
 Frequencies --   1185.3018              1278.2512              1281.2250
 Red. masses --      1.2559                 2.2250                 5.6544
 Frc consts  --      1.0396                 2.1420                 5.4687
 IR Inten    --      1.9549                38.2979               217.8626

                     37                     38                     39
                      A                      A                      A
 Frequencies --   1314.4824              1360.2950              1487.7516
 Red. masses --      2.3745                 6.8288                 2.6434
 Frc consts  --      2.4173                 7.4449                 3.4473
 IR Inten    --     39.6775                13.9309                40.0493

                     40                     41                     42
                      A                      A                      A
 Frequencies --   1506.4052              1591.0710              1636.2321
 Red. masses --      2.8182                10.4366                 6.3715
 Frc consts  --      3.7679                15.5664                10.0503
 IR Inten    --     17.2954                73.0128                 2.9609

                     43                     44                     45
                      A                      A                      A
 Frequencies --   1680.0349              3203.0016              3215.8832
 Red. masses --      6.8980                 1.0850                 1.0900
 Frc consts  --     11.4712                 6.5586                 6.6415
 IR Inten    --      7.8546                 2.1397                17.2101

                     46                     47                     48
                      A                      A                      A
 Frequencies --   3227.3711              3237.5584              3514.3346
 Red. masses --      1.0952                 1.0956                 1.0730
 Frc consts  --      6.7210                 6.7663                 7.8082
 IR Inten    --     38.4357                17.8490                 8.8079

 - Thermochemistry -
 -------------------
 Temperature   298.150 Kelvin.  Pressure   1.00000 Atm.
 Atom     1 has atomic number  6 and mass  12.00000

 Molecular mass:   212.97925 amu.
 Principal axes and moments of inertia in atomic units:
                           1         2         3
     Eigenvalues --  1009.481504679.662575325.11288
           X            1.00000   0.00159  -0.00237
           Y           -0.00161   0.99994  -0.01061
           Z            0.00235   0.01062   0.99994
 This molecule is an asymmetric top.
 Rotational symmetry number  1.
 Warning -- assumption of classical behavior for rotation
           may cause significant error
 Rotational temperatures (Kelvin)      0.08580     0.01851     0.01627
 Rotational constants (GHZ):           1.78779     0.38566     0.33891
 Zero-point vibrational energy     308620.1 (Joules/Mol)
                                   73.76197 (Kcal/Mol)
 Warning -- explicit consideration of  17 degrees of freedom as
           vibrations may cause significant error
 Vibrational temperatures:     41.94   108.43   176.44   271.40   294.68
          (Kelvin)            340.37   405.66   486.86   556.96   632.73
                              669.49   710.78   741.00   749.24   805.76
                              818.97   883.52   915.95   981.83  1043.92
                             1059.30  1109.72  1245.71  1255.14  1379.11
                             1384.21  1429.53  1465.95  1515.80  1591.23
                             1616.59  1658.48  1692.14  1705.38  1839.12
                             1843.40  1891.25  1957.16  2140.54  2167.38
                             2289.20  2354.17  2417.20  4608.40  4626.94
                             4643.47  4658.12  5056.34

 Zero-point correction=                           0.117547 (Hartree/Particle)
 Thermal correction to Energy=                    0.128224
 Thermal correction to Enthalpy=                  0.129168
 Thermal correction to Gibbs Free Energy=         0.079723
 Sum of electronic and zero-point Energies=          -1325.698186
 Sum of electronic and thermal Energies=             -1325.687509
 Sum of electronic and thermal Enthalpies=           -1325.686565
 Sum of electronic and thermal Free Energies=        -1325.736010

                     E (Thermal)             CV                S
                      KCal/Mol        Cal/Mol-Kelvin    Cal/Mol-Kelvin
 Total                   80.462             40.866            104.066
 Electronic               0.000              0.000              0.000
 Translational            0.889              2.981             41.972
 Rotational               0.889              2.981             31.598
 Vibrational             78.684             34.904             30.496
 Vibration     1          0.593              1.984              5.887
 Vibration     2          0.599              1.965              4.008
 Vibration     3          0.610              1.930              3.058
 Vibration     4          0.633              1.855              2.241
 Vibration     5          0.640              1.833              2.089
 Vibration     6          0.655              1.785              1.829
 Vibration     7          0.681              1.707              1.522
 Vibration     8          0.719              1.599              1.220
 Vibration     9          0.756              1.498              1.011
 Vibration    10          0.800              1.383              0.827
 Vibration    11          0.823              1.327              0.751
 Vibration    12          0.850              1.263              0.673
 Vibration    13          0.870              1.217              0.622
 Vibration    14          0.876              1.204              0.608
 Vibration    15          0.916              1.118              0.524
 Vibration    16          0.925              1.098              0.506
 Vibration    17          0.973              1.002              0.426

                           ! Non-Optimized Parameters !
 Normal termination of Gaussian 16 at Thu Jun 23 16:31:50 2022.
