 Gaussian 16, Revision C.01,
 Gaussian 16:  ES64L-G16RevC.01  3-Jul-2019

 --------------------------------------------------
 #M062X/gen 6D INT(grid=ultrafine) OPT Freq=noraman
 --------------------------------------------------

 -------------
 A.25.a2d3.freq
 -------------
 Symbolic Z-matrix:
 Charge = -1 Multiplicity = 1

 SCF Done:  E(RM062X) =  -1396.18014491     A.U. after   15 cycles
 SCF Done:  E(RM062X) =  -1396.18283683     A.U. after   14 cycles
 SCF Done:  E(RM062X) =  -1396.18342864     A.U. after   12 cycles
 SCF Done:  E(RM062X) =  -1396.18351197     A.U. after   13 cycles
 SCF Done:  E(RM062X) =  -1396.18353661     A.U. after   11 cycles
 SCF Done:  E(RM062X) =  -1396.18353982     A.U. after   12 cycles
 SCF Done:  E(RM062X) =  -1396.18354628     A.U. after   10 cycles
 SCF Done:  E(RM062X) =  -1396.18354772     A.U. after   10 cycles
 SCF Done:  E(RM062X) =  -1396.18354820     A.U. after   10 cycles
 SCF Done:  E(RM062X) =  -1396.18354841     A.U. after    9 cycles
 SCF Done:  E(RM062X) =  -1396.18355005     A.U. after   10 cycles
 SCF Done:  E(RM062X) =  -1396.18355102     A.U. after   10 cycles
 SCF Done:  E(RM062X) =  -1396.18355077     A.U. after   11 cycles
 SCF Done:  E(RM062X) =  -1396.18355242     A.U. after   11 cycles
 SCF Done:  E(RM062X) =  -1396.18355318     A.U. after   10 cycles
 SCF Done:  E(RM062X) =  -1396.18355285     A.U. after   10 cycles
 SCF Done:  E(RM062X) =  -1396.18355340     A.U. after   11 cycles
 SCF Done:  E(RM062X) =  -1396.18355430     A.U. after   11 cycles
 SCF Done:  E(RM062X) =  -1396.18355433     A.U. after    9 cycles
 Optimization completed.
    -- Stationary point found.
 Normal termination of Gaussian 16 at Fri May 20 23:22:35 2022.

 ------------------------------------------------------------------
 #N Geom=AllCheck Guess=TCheck SCRF=Check GenChk RM062X/ChkBas Freq
 ------------------------------------------------------------------

 Structure from the checkpoint file:  "/jobfs/40781022.gadi-pbs/Gau-1007247.chk"
 -------------
 A.25.a2d3.freq
 -------------
 Charge = -1 Multiplicity = 1

                         Standard orientation:
 ---------------------------------------------------------------------
 Center     Atomic      Atomic             Coordinates (Angstroms)
 Number     Number       Type             X           Y           Z
 ---------------------------------------------------------------------
      1          6           0       -1.056526    0.404524   -0.029265
      2          6           0        1.278164    0.702324   -0.003995
      3          7           0        2.673040    0.732412    0.013505
      4         16           0        0.286353   -0.712346   -0.015994
      5         16           0       -2.782346   -0.247345   -0.007494
      6          8           0       -3.315599    0.270367   -1.282244
      7          8           0       -2.486050   -1.689911    0.054141
      8          7           0       -3.467049    0.255191    1.290244
      9          1           0       -3.798314    1.202485    1.096821
     10          6           0        3.508310   -0.349706    0.012315
     11          8           0        3.101930   -1.497898   -0.002417
     12          6           0        4.988439   -0.022370    0.032126
     13          7           0       -0.717493    1.651017   -0.020684
     14          7           0        0.637911    1.835742   -0.008711
     15          1           0        3.052394    1.671337    0.023990
     16          1           0        5.453867   -0.478562   -0.845144
     17          1           0        5.430633   -0.479625    0.920879
     18          1           0        5.199858    1.049785    0.035848
 ---------------------------------------------------------------------

 SCF Done:  E(RM062X) =  -1396.18355433     A.U. after    1 cycles

 The electronic state is 1-A.
 Alpha  occ. eigenvalues --  -89.98685 -89.86023 -19.55156 -19.46477 -19.46430
 Alpha  occ. eigenvalues --  -14.73937 -14.68618 -14.67744 -14.57049 -10.59783
 Alpha  occ. eigenvalues --  -10.55255 -10.49786 -10.49410  -8.29457  -8.20400
 Alpha  occ. eigenvalues --   -6.21665  -6.21655  -6.21540  -6.12373  -6.12142
 Alpha  occ. eigenvalues --   -6.11913  -1.10357  -1.06088  -1.04128  -0.97585
 Alpha  occ. eigenvalues --   -0.94246  -0.82337  -0.81091  -0.79324  -0.76729
 Alpha  occ. eigenvalues --   -0.64536  -0.59617  -0.57607  -0.52966  -0.49047
 Alpha  occ. eigenvalues --   -0.47405  -0.47173  -0.43142  -0.42100  -0.41548
 Alpha  occ. eigenvalues --   -0.40463  -0.39531  -0.38339  -0.37302  -0.35811
 Alpha  occ. eigenvalues --   -0.30528  -0.28013  -0.26844  -0.26726  -0.23741
 Alpha  occ. eigenvalues --   -0.23539  -0.22454  -0.21740  -0.20866  -0.19007
 Alpha  occ. eigenvalues --   -0.17239  -0.14613
 Alpha virt. eigenvalues --    0.07443   0.09740   0.09866   0.11503   0.12088
 Alpha virt. eigenvalues --    0.14289   0.14996   0.15362   0.15780   0.15979
 Alpha virt. eigenvalues --    0.16693   0.17342   0.18062   0.19186   0.19524

 Mulliken charges:
               1
     1  C   -0.724537
     2  C   -0.540028
     3  N   -0.532898
     4  S    0.891663
     5  S    1.444932
     6  O   -0.568860
     7  O   -0.677987
     8  N   -0.800740
     9  H    0.346960
    10  C    0.776770
    11  O   -0.497976
    12  C   -1.033709
    13  N   -0.010638
    14  N   -0.213579
    15  H    0.446255
    16  H    0.245206
    17  H    0.245362
    18  H    0.203804
 Sum of Mulliken charges =  -1.00000

 Dipole moment (field-independent basis, Debye):
    X=             14.0952    Y=              2.8360    Z=             -0.1235  Tot=             14.3782
 Quadrupole moment (field-independent basis, Debye-Ang):
   XX=           -121.9971   YY=           -108.8212   ZZ=           -101.2024
   XY=              2.2762   XZ=              0.6702   YZ=              2.1134

  Exact polarizability:     184.339      -5.238     121.767      -4.368       0.672      89.504
 Approx polarizability:     182.852      -9.739     183.304      -3.454      -0.041     119.656

                      1                      2                      3
                      A                      A                      A
 Frequencies --     18.8057                47.5508                62.7057
 Red. masses --      9.3058                 1.6105                 2.0859
 Frc consts  --      0.0019                 0.0021                 0.0048
 IR Inten    --      0.0496                 1.4024                 3.6166

                      4                      5                      6
                      A                      A                      A
 Frequencies --     74.9895                88.0717               129.8435
 Red. masses --      7.8647                 7.9041                 6.0835
 Frc consts  --      0.0261                 0.0361                 0.0604
 IR Inten    --      7.4034                 0.1357                 2.0867

                      7                      8                      9
                      A                      A                      A
 Frequencies --    162.9471               233.5392               250.1644
 Red. masses --      8.3515                 6.7259                 9.0807
 Frc consts  --      0.1306                 0.2161                 0.3348
 IR Inten    --     28.9794                 0.8595                 0.1884

                     10                     11                     12
                      A                      A                      A
 Frequencies --    301.7457               352.0703               389.2559
 Red. masses --      6.7678                 5.0934                 7.5019
 Frc consts  --      0.3631                 0.3720                 0.6697
 IR Inten    --      2.5125                 2.5201                 4.0878

                     13                     14                     15
                      A                      A                      A
 Frequencies --    391.8935               465.1564               504.2160
 Red. masses --      6.2616                 3.3031                 5.4122
 Frc consts  --      0.5666                 0.4211                 0.8107
 IR Inten    --      3.4488                33.4157                 3.3623

                     16                     17                     18
                      A                      A                      A
 Frequencies --    516.6299               539.2356               572.0458
 Red. masses --      1.6193                 1.9374                 5.3255
 Frc consts  --      0.2546                 0.3319                 1.0268
 IR Inten    --     64.4721                81.0066                 4.7733

                     19                     20                     21
                      A                      A                      A
 Frequencies --    606.0273               619.4546               632.9669
 Red. masses --     11.7878                 9.2248                 2.0220
 Frc consts  --      2.5508                 2.0856                 0.4773
 IR Inten    --    265.3258                32.9309                17.9368

                     22                     23                     24
                      A                      A                      A
 Frequencies --    649.7628               680.9276               721.4475
 Red. masses --      8.1038                11.0569                 7.5410
 Frc consts  --      2.0158                 3.0205                 2.3125
 IR Inten    --      5.6185                 8.4579                 1.2817

                     25                     26                     27
                      A                      A                      A
 Frequencies --    809.8463               974.9267               997.0029
 Red. masses --      9.3035                14.0311                 4.9328
 Frc consts  --      3.5950                 7.8575                 2.8889
 IR Inten    --      1.6354               205.2936                15.8737

                     28                     29                     30
                      A                      A                      A
 Frequencies --   1023.0608              1064.5372              1072.2726
 Red. masses --      1.6043                 1.6949                10.7837
 Frc consts  --      0.9893                 1.1317                 7.3052
 IR Inten    --     16.2741                 6.0856                61.0693

                     31                     32                     33
                      A                      A                      A
 Frequencies --   1120.8661              1160.3265              1180.4626
 Red. masses --      1.6585                 9.4896                 5.0807
 Frc consts  --      1.2276                 7.5277                 4.1714
 IR Inten    --    171.0897                10.2915               204.0880

                     34                     35                     36
                      A                      A                      A
 Frequencies --   1261.4777              1279.4036              1363.3915
 Red. masses --      2.1583                 6.9077                 4.2416
 Frc consts  --      2.0236                 6.6619                 4.6453
 IR Inten    --     31.5900               252.8731               152.6164

                     37                     38                     39
                      A                      A                      A
 Frequencies --   1420.1550              1479.7376              1496.4008
 Red. masses --      1.2594                 2.9752                 1.0447
 Frc consts  --      1.4965                 3.8383                 1.3782
 IR Inten    --     30.9553                85.0721                 7.2583

                     40                     41                     42
                      A                      A                      A
 Frequencies --   1517.5188              1549.6975              1603.5221
 Red. masses --      1.2493                12.3926                 3.7861
 Frc consts  --      1.6951                17.5350                 5.7358
 IR Inten    --     24.6047                 1.4857               480.4904

                     43                     44                     45
                      A                      A                      A
 Frequencies --   1817.6631              3096.4436              3178.7051
 Red. masses --     10.4865                 1.0352                 1.1017
 Frc consts  --     20.4131                 5.8481                 6.5584
 IR Inten    --    264.6755                10.4279                 4.1876

                     46                     47                     48
                      A                      A                      A
 Frequencies --   3179.9208              3514.3883              3636.9438
 Red. masses --      1.1043                 1.0731                 1.0777
 Frc consts  --      6.5789                 7.8088                 8.3990
 IR Inten    --     13.6024                 9.3289                48.2346

 - Thermochemistry -
 -------------------
 Temperature   298.150 Kelvin.  Pressure   1.00000 Atm.
 Atom     1 has atomic number  6 and mass  12.00000

 Molecular mass:   220.98031 amu.
 Principal axes and moments of inertia in atomic units:
                           1         2         3
     Eigenvalues --   936.824405719.548176281.67210
           X            1.00000   0.00075  -0.00225
           Y           -0.00073   0.99996   0.00864
           Z            0.00225  -0.00864   0.99996
 This molecule is an asymmetric top.
 Rotational symmetry number  1.
 Warning -- assumption of classical behavior for rotation
           may cause significant error
 Rotational temperatures (Kelvin)      0.09245     0.01514     0.01379
 Rotational constants (GHZ):           1.92645     0.31554     0.28730
 Zero-point vibrational energy     297930.7 (Joules/Mol)
                                   71.20715 (Kcal/Mol)
 Warning -- explicit consideration of  20 degrees of freedom as
           vibrations may cause significant error
 Vibrational temperatures:     27.06    68.41    90.22   107.89   126.72
          (Kelvin)            186.82   234.44   336.01   359.93   434.14
                              506.55   560.05   563.85   669.26   725.45
                              743.32   775.84   823.05   871.94   891.26
                              910.70   934.86   979.70  1038.00  1165.19
                             1402.70  1434.46  1471.96  1531.63  1542.76
                             1612.68  1669.45  1698.42  1814.99  1840.78
                             1961.62  2043.29  2129.01  2152.99  2183.37
                             2229.67  2307.11  2615.21  4455.09  4573.45
                             4575.20  5056.42  5232.75

 Zero-point correction=                           0.113476 (Hartree/Particle)
 Thermal correction to Energy=                    0.126345
 Thermal correction to Enthalpy=                  0.127289
 Thermal correction to Gibbs Free Energy=         0.071419
 Sum of electronic and zero-point Energies=          -1396.070079
 Sum of electronic and thermal Energies=             -1396.057210
 Sum of electronic and thermal Enthalpies=           -1396.056265
 Sum of electronic and thermal Free Energies=        -1396.112135

                     E (Thermal)             CV                S
                      KCal/Mol        Cal/Mol-Kelvin    Cal/Mol-Kelvin
 Total                   79.283             45.012            117.588
 Electronic               0.000              0.000              0.000
 Translational            0.889              2.981             42.081
 Rotational               0.889              2.981             31.887
 Vibrational             77.505             39.050             43.619
 Vibration     1          0.593              1.986              6.756
 Vibration     2          0.595              1.979              4.917
 Vibration     3          0.597              1.972              4.370
 Vibration     4          0.599              1.966              4.018
 Vibration     5          0.601              1.958              3.702
 Vibration     6          0.612              1.923              2.948
 Vibration     7          0.623              1.888              2.515
 Vibration     8          0.654              1.790              1.852
 Vibration     9          0.663              1.762              1.729
 Vibration    10          0.694              1.670              1.407
 Vibration    11          0.729              1.571              1.157
 Vibration    12          0.757              1.493              1.003
 Vibration    13          0.759              1.488              0.993
 Vibration    14          0.823              1.327              0.751
 Vibration    15          0.859              1.241              0.648
 Vibration    16          0.872              1.213              0.618
 Vibration    17          0.894              1.163              0.567
 Vibration    18          0.928              1.092              0.500
 Vibration    19          0.965              1.019              0.439
 Vibration    20          0.979              0.991              0.417

                           ! Non-Optimized Parameters !
 Normal termination of Gaussian 16 at Fri May 20 23:25:48 2022.
