 Gaussian 16, Revision C.01,
 Gaussian 16:  ES64L-G16RevC.01  3-Jul-2019

 --------------------------------------------------
 #M062X/gen 6D INT(grid=ultrafine) OPT Freq=noraman
 --------------------------------------------------

 ----------------
 A.26.a1c2d2.freq
 ----------------
 Symbolic Z-matrix:
 Charge = -1 Multiplicity = 1

 SCF Done:  E(RM062X) =  -1435.47694580     A.U. after   17 cycles
 SCF Done:  E(RM062X) =  -1435.47887340     A.U. after   14 cycles
 SCF Done:  E(RM062X) =  -1435.47959217     A.U. after   13 cycles
 SCF Done:  E(RM062X) =  -1435.47979157     A.U. after   14 cycles
 SCF Done:  E(RM062X) =  -1435.47990160     A.U. after   15 cycles
 SCF Done:  E(RM062X) =  -1435.47995556     A.U. after   13 cycles
 SCF Done:  E(RM062X) =  -1435.48000676     A.U. after   14 cycles
 SCF Done:  E(RM062X) =  -1435.48002243     A.U. after   13 cycles
 SCF Done:  E(RM062X) =  -1435.48002890     A.U. after   12 cycles
 SCF Done:  E(RM062X) =  -1435.48003160     A.U. after   11 cycles
 SCF Done:  E(RM062X) =  -1435.48003225     A.U. after   12 cycles
 SCF Done:  E(RM062X) =  -1435.48003283     A.U. after    9 cycles
 SCF Done:  E(RM062X) =  -1435.48003304     A.U. after   10 cycles
 SCF Done:  E(RM062X) =  -1435.48003317     A.U. after    9 cycles
 SCF Done:  E(RM062X) =  -1435.48003321     A.U. after    9 cycles
 Optimization completed.
    -- Stationary point found.
 Normal termination of Gaussian 16 at Sat May 21 13:00:36 2022.

 ------------------------------------------------------------------
 #N Geom=AllCheck Guess=TCheck SCRF=Check GenChk RM062X/ChkBas Freq
 ------------------------------------------------------------------

 Structure from the checkpoint file:  "/jobfs/40839089.gadi-pbs/Gau-3712181.chk"
 ----------------
 A.26.a1c2d2.freq
 ----------------
 Charge = -1 Multiplicity = 1

                         Standard orientation:
 ---------------------------------------------------------------------
 Center     Atomic      Atomic             Coordinates (Angstroms)
 Number     Number       Type             X           Y           Z
 ---------------------------------------------------------------------
      1          6           0        1.088223    0.217820    0.025995
      2          7           0        0.740363    1.454936    0.017612
      3          7           0       -0.621137    1.560277    0.009963
      4          6           0       -1.342274    0.419249    0.003924
      5          7           0       -2.658818    0.472409   -0.011879
      6         16           0       -0.228882   -0.936650    0.017370
      7         16           0        2.847791   -0.354515    0.007926
      8          8           0        3.352025    0.212400    1.273391
      9          8           0        2.614634   -1.806361   -0.033319
     10          7           0        3.503202    0.167781   -1.296484
     11          1           0        3.821138    1.119408   -1.103030
     12          6           0       -1.232339    2.873856   -0.003542
     13          1           0       -0.420672    3.599463    0.024230
     14          1           0       -1.885482    2.988541    0.865000
     15          1           0       -1.832083    2.997411   -0.909007
     16          6           0       -3.332539   -0.723294   -0.013550
     17          6           0       -4.839748   -0.563828   -0.032827
     18          8           0       -2.811664   -1.836349   -0.000627
     19          1           0       -5.140228    0.003704   -0.919020
     20          1           0       -5.161854    0.006955    0.843693
     21          1           0       -5.316520   -1.544985   -0.036643
 ---------------------------------------------------------------------

 SCF Done:  E(RM062X) =  -1435.48003321     A.U. after    1 cycles

 The electronic state is 1-A.
 Alpha  occ. eigenvalues --  -89.99637 -89.86406 -19.52306 -19.47446 -19.47328
 Alpha  occ. eigenvalues --  -14.75888 -14.70782 -14.64802 -14.58006 -10.56684
 Alpha  occ. eigenvalues --  -10.55251 -10.50704 -10.50510 -10.45656  -8.30406
 Alpha  occ. eigenvalues --   -8.20724  -6.22616  -6.22605  -6.22487  -6.12691
 Alpha  occ. eigenvalues --   -6.12462  -6.12211  -1.08841  -1.06839  -1.06074
 Alpha  occ. eigenvalues --   -0.95253  -0.93083  -0.86897  -0.82305  -0.79783
 Alpha  occ. eigenvalues --   -0.73789  -0.71962  -0.64046  -0.58176  -0.54924
 Alpha  occ. eigenvalues --   -0.50684  -0.47904  -0.45855  -0.45440  -0.44176
 Alpha  occ. eigenvalues --   -0.42402  -0.41393  -0.40882  -0.40000  -0.38390
 Alpha  occ. eigenvalues --   -0.37380  -0.37077  -0.34948  -0.34521  -0.29057
 Alpha  occ. eigenvalues --   -0.28188  -0.27596  -0.26573  -0.25017  -0.24013
 Alpha  occ. eigenvalues --   -0.22979  -0.21936  -0.20921  -0.18446  -0.18097
 Alpha  occ. eigenvalues --   -0.15471
 Alpha virt. eigenvalues --    0.09293   0.09882   0.10402   0.12100   0.12376
 Alpha virt. eigenvalues --    0.12845   0.14189   0.14365   0.14895   0.15726
 Alpha virt. eigenvalues --    0.16273   0.16670   0.17300   0.17555   0.18232

 Mulliken charges:
               1
     1  C   -1.109275
     2  N    0.227978
     3  N   -0.349908
     4  C   -0.418440
     5  N   -0.315346
     6  S    0.976054
     7  S    1.439375
     8  O   -0.571046
     9  O   -0.657532
    10  N   -0.796769
    11  H    0.347240
    12  C   -0.482239
    13  H    0.238681
    14  H    0.238204
    15  H    0.236936
    16  C    0.901354
    17  C   -1.071343
    18  O   -0.501225
    19  H    0.221759
    20  H    0.221549
    21  H    0.223991
 Sum of Mulliken charges =  -1.00000

 Dipole moment (field-independent basis, Debye):
    X=             -9.8874    Y=              5.9560    Z=              0.1575  Tot=             11.5437
 Quadrupole moment (field-independent basis, Debye-Ang):
   XX=           -149.0094   YY=           -107.2367   ZZ=           -107.3556
   XY=              1.5294   XZ=              0.4725   YZ=             -2.0510

  Exact polarizability:     202.902       4.790     141.262      -4.257      -0.657      98.194
 Approx polarizability:     206.142       4.633     193.359      -3.199      -0.019     131.547

                      1                      2                      3
                      A                      A                      A
 Frequencies --      9.1677                46.3066                64.9844
 Red. masses --      8.0225                 2.2081                 1.2122
 Frc consts  --      0.0004                 0.0028                 0.0030
 IR Inten    --      0.0241                 0.1463                 0.5747

                      4                      5                      6
                      A                      A                      A
 Frequencies --     77.6954                93.5234                94.7700
 Red. masses --      1.2522                 7.5974                 5.2278
 Frc consts  --      0.0045                 0.0392                 0.0277
 IR Inten    --      0.0123                 0.7897                 1.4316

                      7                      8                      9
                      A                      A                      A
 Frequencies --    131.5199               157.9983               177.1041
 Red. masses --      8.2204                 5.6321                 4.7043
 Frc consts  --      0.0838                 0.0828                 0.0869
 IR Inten    --      0.0334                11.1107                 8.1331

                     10                     11                     12
                      A                      A                      A
 Frequencies --    232.0639               247.3660               274.7779
 Red. masses --      7.1475                 7.7401                 3.7782
 Frc consts  --      0.2268                 0.2790                 0.1681
 IR Inten    --      0.0454                 0.5444                 9.1126

                     13                     14                     15
                      A                      A                      A
 Frequencies --    303.4097               362.2285               368.8266
 Red. masses --      6.2768                 4.3112                 9.2793
 Frc consts  --      0.3404                 0.3333                 0.7437
 IR Inten    --      7.8357                 3.6144                 0.7364

                     16                     17                     18
                      A                      A                      A
 Frequencies --    443.6816               481.5506               508.1977
 Red. masses --      3.3951                 4.6455                11.6445
 Frc consts  --      0.3938                 0.6347                 1.7719
 IR Inten    --     28.8690                 5.9059                22.1311

                     19                     20                     21
                      A                      A                      A
 Frequencies --    518.5696               551.1959               601.1983
 Red. masses --      1.6492                 6.9945                15.6651
 Frc consts  --      0.2613                 1.2520                 3.3359
 IR Inten    --     70.1130                35.8534               199.9323

                     22                     23                     24
                      A                      A                      A
 Frequencies --    608.1565               628.4318               646.9549
 Red. masses --      3.2772                12.3006                 4.6404
 Frc consts  --      0.7141                 2.8621                 1.1443
 IR Inten    --      2.8668                25.8149                96.6926

                     25                     26                     27
                      A                      A                      A
 Frequencies --    666.3759               714.2902               763.9693
 Red. masses --      6.2886                 9.4304                 8.9042
 Frc consts  --      1.6453                 2.8348                 3.0619
 IR Inten    --      7.8829                13.9822                13.7246

                     28                     29                     30
                      A                      A                      A
 Frequencies --    939.9331               976.4911              1015.3446
 Red. masses --      6.7227                11.1538                 6.0607
 Frc consts  --      3.4994                 6.2663                 3.6813
 IR Inten    --      2.5417               288.1881                13.4909

                     31                     32                     33
                      A                      A                      A
 Frequencies --   1031.4044              1065.1158              1068.5679
 Red. masses --      1.7742                 1.8327                 2.3972
 Frc consts  --      1.1120                 1.2250                 1.6127
 IR Inten    --     23.3107                 3.7461                42.5820

                     34                     35                     36
                      A                      A                      A
 Frequencies --   1121.8927              1134.7310              1157.3788
 Red. masses --      1.6744                 3.4405                 1.3004
 Frc consts  --      1.2417                 2.6101                 1.0263
 IR Inten    --    165.9776                42.7224                 0.4902

                     37                     38                     39
                      A                      A                      A
 Frequencies --   1181.7129              1287.1851              1296.7022
 Red. masses --      5.7898                 6.9693                 3.5841
 Frc consts  --      4.7636                 6.8033                 3.5507
 IR Inten    --    216.6943               186.5285               152.0535

                     40                     41                     42
                      A                      A                      A
 Frequencies --   1364.3587              1412.1131              1443.7602
 Red. masses --      2.9595                 1.9963                 1.4928
 Frc consts  --      3.2458                 2.3454                 1.8334
 IR Inten    --    195.8242               120.1312                 6.2119

                     43                     44                     45
                      A                      A                      A
 Frequencies --   1461.4253              1494.7741              1498.6666
 Red. masses --      4.0309                 1.0662                 1.0419
 Frc consts  --      5.0724                 1.4036                 1.3787
 IR Inten    --    452.6389                21.4332                 6.2109

                     46                     47                     48
                      A                      A                      A
 Frequencies --   1500.1815              1526.7195              1564.5969
 Red. masses --      1.0477                 1.1349                 4.7974
 Frc consts  --      1.3893                 1.5586                 6.9192
 IR Inten    --     11.3820                51.0809               720.7658

                     49                     50                     51
                      A                      A                      A
 Frequencies --   1633.7707              1749.0578              3089.6536
 Red. masses --     12.7318                10.6100                 1.0360
 Frc consts  --     20.0226                19.1237                 5.8268
 IR Inten    --    101.2921               238.9423                11.2240

                     52                     53                     54
                      A                      A                      A
 Frequencies --   3098.7259              3157.5761              3165.0395
 Red. masses --      1.0330                 1.1003                 1.1052
 Frc consts  --      5.8443                 6.4636                 6.5232
 IR Inten    --     41.4583                11.8848                14.8753

                     55                     56                     57
                      A                      A                      A
 Frequencies --   3195.6210              3217.5689              3516.8372
 Red. masses --      1.1039                 1.1042                 1.0732
 Frc consts  --      6.6416                 6.7354                 7.8204
 IR Inten    --     18.9583                 2.1179                 9.1939

 - Thermochemistry -
 -------------------
 Temperature   298.150 Kelvin.  Pressure   1.00000 Atm.
 Atom     1 has atomic number  6 and mass  12.00000

 Molecular mass:   234.99596 amu.
 Principal axes and moments of inertia in atomic units:
                           1         2         3
     Eigenvalues --  1451.232435661.872876728.15884
           X            1.00000  -0.00071  -0.00235
           Y            0.00070   0.99999  -0.00422
           Z            0.00236   0.00422   0.99999
 This molecule is an asymmetric top.
 Rotational symmetry number  1.
 Warning -- assumption of classical behavior for rotation
           may cause significant error
 Rotational temperatures (Kelvin)      0.05968     0.01530     0.01287
 Rotational constants (GHZ):           1.24359     0.31875     0.26824
 Zero-point vibrational energy     371687.0 (Joules/Mol)
                                   88.83534 (Kcal/Mol)
 Warning -- explicit consideration of  22 degrees of freedom as
           vibrations may cause significant error
 Vibrational temperatures:     13.19    66.62    93.50   111.79   134.56
          (Kelvin)            136.35   189.23   227.32   254.81   333.89
                              355.90   395.34   436.54   521.17   530.66
                              638.36   692.84   731.18   746.11   793.05
                              864.99   875.00   904.17   930.82   958.77
                             1027.70  1099.18  1352.35  1404.95  1460.85
                             1483.96  1532.46  1537.43  1614.15  1632.62
                             1665.21  1700.22  1851.97  1865.67  1963.01
                             2031.72  2077.25  2102.67  2150.65  2156.25
                             2158.43  2196.61  2251.11  2350.63  2516.50
                             4445.32  4458.38  4543.05  4553.79  4597.79
                             4629.36  5059.94

 Zero-point correction=                           0.141568 (Hartree/Particle)
 Thermal correction to Energy=                    0.156119
 Thermal correction to Enthalpy=                  0.157064
 Thermal correction to Gibbs Free Energy=         0.096911
 Sum of electronic and zero-point Energies=          -1435.338465
 Sum of electronic and thermal Energies=             -1435.323914
 Sum of electronic and thermal Enthalpies=           -1435.322970
 Sum of electronic and thermal Free Energies=        -1435.383122

                     E (Thermal)             CV                S
                      KCal/Mol        Cal/Mol-Kelvin    Cal/Mol-Kelvin
 Total                   97.966             50.365            126.602
 Electronic               0.000              0.000              0.000
 Translational            0.889              2.981             42.265
 Rotational               0.889              2.981             32.380
 Vibrational             96.189             44.403             51.956
 Vibration     1          0.593              1.987              8.184
 Vibration     2          0.595              1.979              4.969
 Vibration     3          0.597              1.971              4.300
 Vibration     4          0.599              1.964              3.948
 Vibration     5          0.603              1.954              3.585
 Vibration     6          0.603              1.953              3.559
 Vibration     7          0.612              1.922              2.924
 Vibration     8          0.621              1.894              2.574
 Vibration     9          0.628              1.871              2.359
 Vibration    10          0.653              1.792              1.863
 Vibration    11          0.661              1.767              1.749
 Vibration    12          0.677              1.720              1.566
 Vibration    13          0.695              1.667              1.398
 Vibration    14          0.736              1.550              1.113
 Vibration    15          0.741              1.536              1.085
 Vibration    16          0.803              1.375              0.815
 Vibration    17          0.838              1.291              0.706
 Vibration    18          0.863              1.232              0.638
 Vibration    19          0.874              1.209              0.613
 Vibration    20          0.907              1.137              0.542
 Vibration    21          0.959              1.029              0.448
 Vibration    22          0.967              1.015              0.436

                           ! Non-Optimized Parameters !
 Normal termination of Gaussian 16 at Sat May 21 13:05:09 2022.
