 Gaussian 16, Revision C.01,
 Gaussian 16:  ES64L-G16RevC.01  3-Jul-2019

 --------------------------------------------------
 #M062X/gen 6D INT(grid=ultrafine) OPT Freq=noraman
 --------------------------------------------------

 --------------
 A.27.a2d3.freq
 --------------
 Symbolic Z-matrix:
 Charge = -1 Multiplicity = 1

 SCF Done:  E(RM062X) =  -1479.59070581     A.U. after   16 cycles
 SCF Done:  E(RM062X) =  -1479.59264265     A.U. after   13 cycles
 SCF Done:  E(RM062X) =  -1479.59315108     A.U. after   13 cycles
 SCF Done:  E(RM062X) =  -1479.59321329     A.U. after   12 cycles
 SCF Done:  E(RM062X) =  -1479.59322693     A.U. after   12 cycles
 SCF Done:  E(RM062X) =  -1479.59323211     A.U. after   11 cycles
 SCF Done:  E(RM062X) =  -1479.59323405     A.U. after   11 cycles
 SCF Done:  E(RM062X) =  -1479.59323472     A.U. after   10 cycles
 Optimization completed.
    -- Stationary point found.
 Normal termination of Gaussian 16 at Wed May 25 15:49:05 2022.

 ------------------------------------------------------------------
 #N Geom=AllCheck Guess=TCheck SCRF=Check GenChk RM062X/ChkBas Freq
 ------------------------------------------------------------------

 Structure from the checkpoint file:  "/jobfs/41232413.gadi-pbs/Gau-1268107.chk"
 --------------
 A.27.a2d3.freq
 --------------
 Charge = -1 Multiplicity = 1

                         Standard orientation:
 ---------------------------------------------------------------------
 Center     Atomic      Atomic             Coordinates (Angstroms)
 Number     Number       Type             X           Y           Z
 ---------------------------------------------------------------------
      1          6           0       -1.849181    0.109821   -0.035310
      2         16           0       -3.669180   -0.175983   -0.000276
      3          8           0       -4.103097    0.491561   -1.243643
      4          8           0       -3.688394   -1.649903    0.007404
      5          7           0       -4.213280    0.411442    1.330413
      6          1           0       -4.338464    1.413836    1.175245
      7          7           0       -1.261706    1.252291   -0.028681
      8          6           0        0.115034    1.097870   -0.018498
      9          6           0        0.571885   -0.234570   -0.014521
     10         16           0       -0.793474   -1.310182   -0.024678
     11          6           0        1.051332    2.142427   -0.013572
     12          6           0        2.402046    1.848673   -0.003519
     13          6           0        2.845536    0.511301    0.001284
     14          6           0        1.940162   -0.543286   -0.004149
     15          8           0        4.208057    0.350467    0.011258
     16          6           0        4.713089   -0.967921    0.020209
     17          6           0        6.226120   -0.876588    0.032246
     18          1           0        0.698152    3.169177   -0.017531
     19          1           0        3.152197    2.633402    0.000766
     20          1           0        2.264572   -1.577544   -0.000552
     21          1           0        4.360990   -1.508741   -0.870084
     22          1           0        4.346156   -1.502268    0.908394
     23          1           0        6.581444   -0.342917   -0.853766
     24          1           0        6.666636   -1.878530    0.038997
     25          1           0        6.567032   -0.337272    0.920493
 ---------------------------------------------------------------------

 SCF Done:  E(RM062X) =  -1479.59323472     A.U. after    1 cycles

 The electronic state is 1-A.
 Alpha  occ. eigenvalues --  -89.98455 -89.84388 -19.59985 -19.46405 -19.46349
 Alpha  occ. eigenvalues --  -14.65428 -14.56995 -10.53994 -10.53134 -10.50239
 Alpha  occ. eigenvalues --  -10.48926 -10.48610 -10.48363 -10.47396 -10.46876
 Alpha  occ. eigenvalues --  -10.46576  -8.29252  -8.18801  -6.21457  -6.21446
 Alpha  occ. eigenvalues --   -6.21337  -6.10796  -6.10575  -6.10315  -1.11763
 Alpha  occ. eigenvalues --   -1.05854  -0.96584  -0.94138  -0.86501  -0.81319
 Alpha  occ. eigenvalues --   -0.80672  -0.79189  -0.73624  -0.72544  -0.66369
 Alpha  occ. eigenvalues --   -0.60750  -0.58987  -0.57376  -0.52723  -0.50344
 Alpha  occ. eigenvalues --   -0.49872  -0.47731  -0.45664  -0.42437  -0.42147
 Alpha  occ. eigenvalues --   -0.40881  -0.40676  -0.40101  -0.38404  -0.37976
 Alpha  occ. eigenvalues --   -0.37297  -0.36500  -0.35659  -0.33923  -0.33627
 Alpha  occ. eigenvalues --   -0.29339  -0.28493  -0.26535  -0.25946  -0.24683
 Alpha  occ. eigenvalues --   -0.22961  -0.21818  -0.20046  -0.18429  -0.17585
 Alpha  occ. eigenvalues --   -0.17064  -0.14300
 Alpha virt. eigenvalues --    0.08103   0.08980   0.10063   0.10260   0.10904
 Alpha virt. eigenvalues --    0.11488   0.11855   0.12148   0.12892   0.14501
 Alpha virt. eigenvalues --    0.14508   0.15524   0.15931   0.16796   0.16882

 Mulliken charges:
               1
     1  C   -0.492079
     2  S    1.794858
     3  O   -0.554455
     4  O   -0.639735
     5  N   -0.767947
     6  H    0.347114
     7  N   -0.068026
     8  C   -0.503326
     9  C    0.509259
    10  S    0.436210
    11  C   -1.608062
    12  C   -0.127773
    13  C    0.114258
    14  C    0.256744
    15  O   -0.430884
    16  C    0.071524
    17  C   -1.003636
    18  H    0.215897
    19  H    0.200986
    20  H    0.199897
    21  H    0.201217
    22  H    0.201645
    23  H    0.220960
    24  H    0.204303
    25  H    0.221050
 Sum of Mulliken charges =  -1.00000

 Dipole moment (field-independent basis, Debye):
    X=             16.9194    Y=              0.1341    Z=             -0.1634  Tot=             16.9208
 Quadrupole moment (field-independent basis, Debye-Ang):
   XX=           -181.9972   YY=           -114.1612   ZZ=           -122.7785
   XY=            -14.1912   XZ=              1.0302   YZ=              2.2024

  Exact polarizability:     260.894       3.372     165.917      -4.914       1.042     113.967
 Approx polarizability:     266.739       6.841     238.691      -3.632       0.340     153.206

                      1                      2                      3
                      A                      A                      A
 Frequencies --     21.7667                43.7938                73.3018
 Red. masses --      6.7123                 5.6944                 6.8177
 Frc consts  --      0.0019                 0.0064                 0.0216
 IR Inten    --      0.2688                 0.5737                 2.9655

                      4                      5                      6
                      A                      A                      A
 Frequencies --     89.5120               116.6007               150.9341
 Red. masses --      6.0320                 1.7251                 4.7886
 Frc consts  --      0.0285                 0.0138                 0.0643
 IR Inten    --      4.2627                 0.5701                 0.9642

                      7                      8                      9
                      A                      A                      A
 Frequencies --    158.1994               202.5631               216.6014
 Red. masses --      8.3390                 5.6046                 8.0353
 Frc consts  --      0.1230                 0.1355                 0.2221
 IR Inten    --      0.5070                 2.0238                 0.5720

                     10                     11                     12
                      A                      A                      A
 Frequencies --    259.5319               268.8407               281.6165
 Red. masses --      1.3533                 3.7137                 7.0972
 Frc consts  --      0.0537                 0.1581                 0.3316
 IR Inten    --      0.8680                 6.9677                 5.6803

                     13                     14                     15
                      A                      A                      A
 Frequencies --    321.8676               381.0812               393.9153
 Red. masses --      4.4532                 5.2430                 8.9807
 Frc consts  --      0.2718                 0.4486                 0.8210
 IR Inten    --      0.8418                 7.3407                 0.2977

                     16                     17                     18
                      A                      A                      A
 Frequencies --    441.7340               443.9054               463.0673
 Red. masses --      3.0113                 5.2465                 3.2917
 Frc consts  --      0.3462                 0.6091                 0.4159
 IR Inten    --      4.5034                 3.2154                33.9299

                     19                     20                     21
                      A                      A                      A
 Frequencies --    502.2974               511.9509               545.5302
 Red. masses --     14.5006                 1.6684                 6.5542
 Frc consts  --      2.1555                 0.2576                 1.1492
 IR Inten    --     16.0669                68.0199                14.3553

                     22                     23                     24
                      A                      A                      A
 Frequencies --    567.5304               595.0360               607.2660
 Red. masses --      6.9739                 5.5896                10.4400
 Frc consts  --      1.3234                 1.1661                 2.2683
 IR Inten    --     59.0569                 9.5836               193.5236

                     25                     26                     27
                      A                      A                      A
 Frequencies --    635.6255               677.7326               716.8838
 Red. masses --      5.0907                10.9078                 6.8612
 Frc consts  --      1.2118                 2.9519                 2.0775
 IR Inten    --     18.3677                18.9395                10.9222

                     28                     29                     30
                      A                      A                      A
 Frequencies --    730.1273               827.2084               837.2569
 Red. masses --      5.2566                 1.2474                 1.4379
 Frc consts  --      1.6510                 0.5029                 0.5939
 IR Inten    --      0.0582                 0.0449                38.6827

                     31                     32                     33
                      A                      A                      A
 Frequencies --    839.4441               862.8387               909.9249
 Red. masses --      5.2811                 1.3070                 3.3597
 Frc consts  --      2.1926                 0.5733                 1.6390
 IR Inten    --     45.9391                18.7215                 7.9678

                     34                     35                     36
                      A                      A                      A
 Frequencies --    960.1769               971.2245               979.2462
 Red. masses --      6.5297                 1.3047                 3.5628
 Frc consts  --      3.5469                 0.7251                 2.0129
 IR Inten    --    190.1226                 0.3558                12.8072

                     37                     38                     39
                      A                      A                      A
 Frequencies --   1023.5113              1083.8361              1119.8633
 Red. masses --      7.2503                 2.4956                 2.4924
 Frc consts  --      4.4750                 1.7272                 1.8416
 IR Inten    --    126.8096                21.8972               104.2571

                     40                     41                     42
                      A                      A                      A
 Frequencies --   1124.2011              1142.2013              1172.4296
 Red. masses --      1.9377                 1.2552                 2.7946
 Frc consts  --      1.4428                 0.9648                 2.2633
 IR Inten    --    127.3896                 4.9900                27.7714

                     43                     44                     45
                      A                      A                      A
 Frequencies --   1176.4746              1193.4040              1267.8274
 Red. masses --      4.6626                 1.5328                 2.0649
 Frc consts  --      3.8023                 1.2862                 1.9555
 IR Inten    --    197.8556                 4.2362               153.9537

                     46                     47                     48
                      A                      A                      A
 Frequencies --   1279.1772              1299.1347              1314.2032
 Red. masses --      6.8511                 1.8235                 1.0988
 Frc consts  --      6.6050                 1.8132                 1.1182
 IR Inten    --    223.2188               127.3265                 0.6412

                     49                     50                     51
                      A                      A                      A
 Frequencies --   1324.6883              1354.8561              1410.2277
 Red. masses --      9.0943                 6.9626                 1.2532
 Frc consts  --      9.4026                 7.5303                 1.4684
 IR Inten    --    119.8627                 2.0737                 4.7117

                     52                     53                     54
                      A                      A                      A
 Frequencies --   1448.9118              1470.3523              1509.1886
 Red. masses --      1.4615                 4.2085                 1.0396
 Frc consts  --      1.8077                 5.3606                 1.3951
 IR Inten    --     55.6088                 1.0425                 6.2684

                     55                     56                     57
                      A                      A                      A
 Frequencies --   1516.5545              1524.8128              1550.0495
 Red. masses --      3.1723                 1.0613                 1.1288
 Frc consts  --      4.2987                 1.4539                 1.5979
 IR Inten    --    224.1613                 8.3284                 0.9395

                     58                     59                     60
                      A                      A                      A
 Frequencies --   1604.1144              1636.9556              1688.6986
 Red. masses --     10.5364                 7.7157                 7.0229
 Frc consts  --     15.9740                12.1815                11.7996
 IR Inten    --     63.7021                13.9059                95.0605

                     61                     62                     63
                      A                      A                      A
 Frequencies --   3038.2217              3075.7212              3086.5225
 Red. masses --      1.0555                 1.1077                 1.0353
 Frc consts  --      5.7406                 6.1740                 5.8110
 IR Inten    --     28.7472                36.0608                30.8924

                     64                     65                     66
                      A                      A                      A
 Frequencies --   3162.1643              3169.0781              3228.2752
 Red. masses --      1.1021                 1.1037                 1.0876
 Frc consts  --      6.4930                 6.5310                 6.6783
 IR Inten    --     25.6111                27.0779                 5.3171

                     67                     68                     69
                      A                      A                      A
 Frequencies --   3243.7076              3253.1864              3512.4506
 Red. masses --      1.0958                 1.0903                 1.0730
 Frc consts  --      6.7930                 6.7988                 7.7999
 IR Inten    --     12.6252                10.4600                 9.0667

 - Thermochemistry -
 -------------------
 Temperature   298.150 Kelvin.  Pressure   1.00000 Atm.
 Atom     1 has atomic number  6 and mass  12.00000

 Molecular mass:   257.00546 amu.
 Principal axes and moments of inertia in atomic units:
                           1         2         3
     Eigenvalues --  1256.592419816.92247**********
           X            0.99993  -0.01208  -0.00160
           Y            0.01209   0.99991   0.00614
           Z            0.00152  -0.00616   0.99998
 This molecule is an asymmetric top.
 Rotational symmetry number  1.
 Warning -- assumption of classical behavior for rotation
           may cause significant error
 Rotational temperatures (Kelvin)      0.06893     0.00882     0.00810
 Rotational constants (GHZ):           1.43622     0.18384     0.16888
 Zero-point vibrational energy     470199.0 (Joules/Mol)
                                  112.38026 (Kcal/Mol)
 Warning -- explicit consideration of  24 degrees of freedom as
           vibrations may cause significant error
 Vibrational temperatures:     31.32    63.01   105.47   128.79   167.76
          (Kelvin)            217.16   227.61   291.44   311.64   373.41
                              386.80   405.18   463.10   548.29   566.76
                              635.56   638.68   666.25   722.69   736.58
                              784.90   816.55   856.12   873.72   914.52
                              975.11  1031.44  1050.49  1190.17  1204.63
                             1207.77  1241.43  1309.18  1381.48  1397.38
                             1408.92  1472.60  1559.40  1611.23  1617.47
                             1643.37  1686.86  1692.68  1717.04  1824.12
                             1840.45  1869.17  1890.85  1905.93  1949.34
                             2029.00  2084.66  2115.51  2171.39  2181.98
                             2193.87  2230.18  2307.96  2355.21  2429.66
                             4371.32  4425.28  4440.82  4549.65  4559.60
                             4644.77  4666.97  4680.61  5053.63

 Zero-point correction=                           0.179089 (Hartree/Particle)
 Thermal correction to Energy=                    0.193816
 Thermal correction to Enthalpy=                  0.194760
 Thermal correction to Gibbs Free Energy=         0.135632
 Sum of electronic and zero-point Energies=          -1479.414145
 Sum of electronic and thermal Energies=             -1479.399419
 Sum of electronic and thermal Enthalpies=           -1479.398475
 Sum of electronic and thermal Free Energies=        -1479.457602

                     E (Thermal)             CV                S
                      KCal/Mol        Cal/Mol-Kelvin    Cal/Mol-Kelvin
 Total                  121.621             54.992            124.445
 Electronic               0.000              0.000              0.000
 Translational            0.889              2.981             42.532
 Rotational               0.889              2.981             33.244
 Vibrational            119.844             49.031             48.669
 Vibration     1          0.593              1.985              6.466
 Vibration     2          0.595              1.980              5.080
 Vibration     3          0.599              1.967              4.063
 Vibration     4          0.602              1.957              3.671
 Vibration     5          0.608              1.936              3.156
 Vibration     6          0.618              1.902              2.660
 Vibration     7          0.621              1.893              2.571
 Vibration     8          0.639              1.836              2.110
 Vibration     9          0.645              1.816              1.987
 Vibration    10          0.668              1.747              1.665
 Vibration    11          0.673              1.730              1.604
 Vibration    12          0.681              1.708              1.524
 Vibration    13          0.707              1.632              1.301
 Vibration    14          0.751              1.511              1.035
 Vibration    15          0.761              1.483              0.985
 Vibration    16          0.801              1.379              0.821
 Vibration    17          0.803              1.374              0.814
 Vibration    18          0.821              1.332              0.757
 Vibration    19          0.858              1.245              0.652
 Vibration    20          0.867              1.224              0.629
 Vibration    21          0.901              1.149              0.554
 Vibration    22          0.923              1.101              0.509
 Vibration    23          0.953              1.042              0.458
 Vibration    24          0.966              1.016              0.437

                           ! Non-Optimized Parameters !
 Normal termination of Gaussian 16 at Wed May 25 15:55:58 2022.
