 Gaussian 16, Revision C.01,
 Gaussian 16:  ES64L-G16RevC.01  3-Jul-2019

 --------------------------------------------------
 #M062X/gen 6D INT(grid=ultrafine) OPT Freq=noraman
 --------------------------------------------------

 ---------
 A.28.freq
 ---------
 Symbolic Z-matrix:
 Charge = -1 Multiplicity = 1

 SCF Done:  E(RM062X) =  -2530.37993445     A.U. after   17 cycles
 SCF Done:  E(RM062X) =  -2530.38391009     A.U. after   15 cycles
 SCF Done:  E(RM062X) =  -2530.38487716     A.U. after   15 cycles
 SCF Done:  E(RM062X) =  -2530.38504678     A.U. after   15 cycles
 SCF Done:  E(RM062X) =  -2530.38510398     A.U. after   15 cycles
 SCF Done:  E(RM062X) =  -2530.38523934     A.U. after   14 cycles
 SCF Done:  E(RM062X) =  -2530.38535043     A.U. after   14 cycles
 SCF Done:  E(RM062X) =  -2530.38538498     A.U. after   14 cycles
 SCF Done:  E(RM062X) =  -2530.38539816     A.U. after   13 cycles
 SCF Done:  E(RM062X) =  -2530.38541280     A.U. after   13 cycles
 SCF Done:  E(RM062X) =  -2530.38541704     A.U. after   12 cycles
 SCF Done:  E(RM062X) =  -2530.38541964     A.U. after   13 cycles
 SCF Done:  E(RM062X) =  -2530.38542008     A.U. after   12 cycles
 Optimization completed.
    -- Stationary point found.
 Normal termination of Gaussian 16 at Wed Jun 29 20:26:58 2022.

 ------------------------------------------------------------------
 #N Geom=AllCheck Guess=TCheck SCRF=Check GenChk RM062X/ChkBas Freq
 ------------------------------------------------------------------

 Structure from the checkpoint file:  "/jobfs/48815993.gadi-pbs/Gau-1300426.chk"
 ---------
 A.28.freq
 ---------
 Charge = -1 Multiplicity = 1

                         Standard orientation:
 ---------------------------------------------------------------------
 Center     Atomic      Atomic             Coordinates (Angstroms)
 Number     Number       Type             X           Y           Z
 ---------------------------------------------------------------------
      1          6           0       -2.183770   -0.022629    0.018367
      2          6           0       -1.867126    1.317136   -0.221929
      3         17           0       -3.109381    2.540320   -0.285650
      4          6           0       -0.562453    1.756042   -0.409625
      5          1           0       -0.365450    2.814093   -0.558559
      6          6           0        0.497622    0.845514   -0.389154
      7          6           0        0.183267   -0.498489   -0.160642
      8         16           0        1.467461   -1.694359   -0.241206
      9          6           0       -1.127829   -0.924758    0.050681
     10          1           0       -1.355165   -1.971061    0.240913
     11         16           0       -3.899370   -0.652605    0.301446
     12          8           0       -4.573699   -0.234200   -0.947106
     13          8           0       -3.637278   -2.091917    0.464579
     14          7           0       -4.441268   -0.019982    1.616609
     15          1           0       -4.849756    0.879987    1.359768
     16          7           0        1.806909    1.309052   -0.525751
     17          6           0        2.924787    0.409761   -0.709411
     18          7           0        2.785288   -0.707852    0.226747
     19          8           0        1.317153   -2.716152    0.781396
     20          8           0        1.682773   -2.119781   -1.625642
     21          6           0        4.224121    1.180980   -0.512694
     22         17           0        4.438468    1.830083    1.138624
     23          1           0        1.880017    2.169354   -1.054764
     24          1           0        2.976490    0.013823   -1.746051
     25          1           0        4.231884    2.031060   -1.198955
     26          1           0        5.084069    0.550663   -0.739176
     27          6           0        3.991430   -1.528199    0.383254
     28          1           0        4.722977   -0.964496    0.966029
     29          1           0        4.423104   -1.831218   -0.582447
     30          1           0        3.719508   -2.421906    0.946716
 ---------------------------------------------------------------------

 SCF Done:  E(RM062X) =  -2530.38542008     A.U. after    2 cycles

 The electronic state is 1-A.
 Alpha  occ. eigenvalues -- -102.60758-102.57411 -90.08002 -89.98557 -19.56392
 Alpha  occ. eigenvalues --  -19.56114 -19.46439 -19.46368 -14.73207 -14.72453
 Alpha  occ. eigenvalues --  -14.56867 -10.58407 -10.56964 -10.53957 -10.53294
 Alpha  occ. eigenvalues --  -10.52158 -10.50168 -10.48266 -10.47759 -10.46522
 Alpha  occ. eigenvalues --   -9.75413  -9.72044  -8.39133  -8.29326  -7.47825
 Alpha  occ. eigenvalues --   -7.47143  -7.47134  -7.44450  -7.43796  -7.43759
 Alpha  occ. eigenvalues --   -6.31343  -6.31268  -6.31174  -6.21539  -6.21518
 Alpha  occ. eigenvalues --   -6.21411  -1.16398  -1.05852  -1.04622  -1.03003
 Alpha  occ. eigenvalues --   -0.96116  -0.94239  -0.91289  -0.90017  -0.85521
 Alpha  occ. eigenvalues --   -0.81183  -0.79430  -0.78196  -0.74783  -0.72898
 Alpha  occ. eigenvalues --   -0.67084  -0.64253  -0.62873  -0.57593  -0.56748
 Alpha  occ. eigenvalues --   -0.53923  -0.53850  -0.51927  -0.48828  -0.48033
 Alpha  occ. eigenvalues --   -0.47196  -0.46112  -0.45539  -0.44303  -0.43814
 Alpha  occ. eigenvalues --   -0.42731  -0.42220  -0.41697  -0.40363  -0.40067
 Alpha  occ. eigenvalues --   -0.39074  -0.37589  -0.36560  -0.35072  -0.33686
 Alpha  occ. eigenvalues --   -0.33403  -0.32096  -0.31396  -0.31046  -0.30849
 Alpha  occ. eigenvalues --   -0.29460  -0.28884  -0.27922  -0.26067  -0.25734
 Alpha  occ. eigenvalues --   -0.23365  -0.22119  -0.21795  -0.20733  -0.18566
 Alpha  occ. eigenvalues --   -0.17136  -0.14388
 Alpha virt. eigenvalues --    0.05957   0.07505   0.08161   0.08656   0.09518
 Alpha virt. eigenvalues --    0.10618   0.10934   0.11467   0.12328   0.12703
 Alpha virt. eigenvalues --    0.13264   0.13652   0.14579   0.14921   0.15477

 Mulliken charges:
               1
     1  C   -2.468331
     2  C    1.346424
     3  Cl   0.193076
     4  C   -1.528383
     5  H    0.207223
     6  C    0.874501
     7  C    0.440761
     8  S    1.625834
     9  C   -0.721472
    10  H    0.302495
    11  S    1.507088
    12  O   -0.520019
    13  O   -0.644505
    14  N   -0.678175
    15  H    0.348881
    16  N   -0.465409
    17  C   -0.141328
    18  N   -0.500639
    19  O   -0.536182
    20  O   -0.422351
    21  C   -0.721629
    22  Cl   0.079730
    23  H    0.409449
    24  H    0.268253
    25  H    0.254652
    26  H    0.274124
    27  C   -0.535528
    28  H    0.238139
    29  H    0.246432
    30  H    0.266891
 Sum of Mulliken charges =  -1.00000

 Dipole moment (field-independent basis, Debye):
    X=             18.0791    Y=              7.3855    Z=             -3.6751  Tot=             19.8723
 Quadrupole moment (field-independent basis, Debye-Ang):
   XX=           -219.7907   YY=           -166.3273   ZZ=           -165.0223
   XY=            -12.8474   XZ=             -1.3722   YZ=             -5.2217

  Exact polarizability:     279.576      -6.637     205.302      -9.808      -3.824     152.447
 Approx polarizability:     285.607      -8.647     269.412     -10.778      -7.247     215.303

                      1                      2                      3
                      A                      A                      A
 Frequencies --     20.2744                44.1334                58.0754
 Red. masses --     12.0916                 8.8658                10.2684
 Frc consts  --      0.0029                 0.0102                 0.0204
 IR Inten    --      0.8817                 0.9390                 1.0279

                      4                      5                      6
                      A                      A                      A
 Frequencies --     77.5624                91.5978               107.7385
 Red. masses --      6.7655                11.6437                 5.7892
 Frc consts  --      0.0240                 0.0576                 0.0396
 IR Inten    --      1.8224                 2.2374                 0.6488

                      7                      8                      9
                      A                      A                      A
 Frequencies --    121.3009               160.4095               169.4337
 Red. masses --      9.1362                 5.9281                14.9099
 Frc consts  --      0.0792                 0.0899                 0.2522
 IR Inten    --      0.7234                 0.4311                 0.0225

                     10                     11                     12
                      A                      A                      A
 Frequencies --    184.9415               200.6728               218.2848
 Red. masses --     11.8573                 9.1817                 5.1726
 Frc consts  --      0.2389                 0.2178                 0.1452
 IR Inten    --      1.8399                 0.9171                 4.1498

                     13                     14                     15
                      A                      A                      A
 Frequencies --    230.6322               249.0380               272.4412
 Red. masses --      4.7912                 9.4933                 1.1987
 Frc consts  --      0.1502                 0.3469                 0.0524
 IR Inten    --      8.1225                 4.3875                 0.3201

                     16                     17                     18
                      A                      A                      A
 Frequencies --    294.5561               310.4214               328.1191
 Red. masses --      6.2616                 4.8122                 2.7832
 Frc consts  --      0.3201                 0.2732                 0.1765
 IR Inten    --      0.9802                26.5736                50.4845

                     19                     20                     21
                      A                      A                      A
 Frequencies --    338.3636               372.7530               385.1118
 Red. masses --      3.1012                 2.1474                 3.1978
 Frc consts  --      0.2092                 0.1758                 0.2794
 IR Inten    --      8.5032                51.2595                16.3516

                     22                     23                     24
                      A                      A                      A
 Frequencies --    414.7873               417.4688               441.2798
 Red. masses --      3.5357                 4.6997                 4.0551
 Frc consts  --      0.3584                 0.4826                 0.4652
 IR Inten    --     17.8180                 9.8393                 7.4457

                     25                     26                     27
                      A                      A                      A
 Frequencies --    480.6922               491.5743               503.4687
 Red. masses --      4.8728                 5.8716                 6.1502
 Frc consts  --      0.6634                 0.8360                 0.9185
 IR Inten    --     21.6517                 7.4060                11.7850

                     28                     29                     30
                      A                      A                      A
 Frequencies --    516.0690               526.7423               537.6158
 Red. masses --      4.5380                 2.4924                 4.7790
 Frc consts  --      0.7121                 0.4074                 0.8138
 IR Inten    --     48.8095               128.8506                25.1437

                     31                     32                     33
                      A                      A                      A
 Frequencies --    561.8616               603.6707               616.5098
 Red. masses --      6.4255                 7.4827                11.5901
 Frc consts  --      1.1951                 1.6066                 2.5955
 IR Inten    --     78.7485                17.1830                89.0364

                     34                     35                     36
                      A                      A                      A
 Frequencies --    663.6519               684.8266               702.4629
 Red. masses --     10.3319                 7.7967                 6.4484
 Frc consts  --      2.6811                 2.1544                 1.8748
 IR Inten    --     10.1825                46.1118                34.0051

                     37                     38                     39
                      A                      A                      A
 Frequencies --    721.9782               724.9535               787.1831
 Red. masses --      4.7844                 4.7041                 6.1198
 Frc consts  --      1.4694                 1.4566                 2.2343
 IR Inten    --     19.2592                52.3233                32.1675

                     40                     41                     42
                      A                      A                      A
 Frequencies --    816.2263               859.0491               909.2608
 Red. masses --      4.4048                 1.5442                 2.5041
 Frc consts  --      1.7290                 0.6714                 1.2198
 IR Inten    --     65.0233                27.2995                22.2368

                     43                     44                     45
                      A                      A                      A
 Frequencies --    919.5905               955.5914               959.0062
 Red. masses --      3.0991                 2.2236                 2.0469
 Frc consts  --      1.5441                 1.1964                 1.1092
 IR Inten    --     28.6784                27.7782                11.8892

                     46                     47                     48
                      A                      A                      A
 Frequencies --    987.9910              1087.1714              1097.0044
 Red. masses --      6.5042                 2.2485                 4.5241
 Frc consts  --      3.7407                 1.5658                 3.2077
 IR Inten    --    376.0002                 7.8500                60.8107

                     49                     50                     51
                      A                      A                      A
 Frequencies --   1127.1413              1138.6818              1143.7662
 Red. masses --      1.8944                 2.5791                 1.8331
 Frc consts  --      1.4180                 1.9702                 1.4129
 IR Inten    --    203.0196                 4.7013                 3.3428

                     52                     53                     54
                      A                      A                      A
 Frequencies --   1155.2807              1167.8292              1177.8728
 Red. masses --      1.5471                 3.6693                 5.4818
 Frc consts  --      1.2166                 2.9485                 4.4810
 IR Inten    --     17.0698               126.9189               231.5637

                     55                     56                     57
                      A                      A                      A
 Frequencies --   1182.1731              1238.0439              1250.9251
 Red. masses --      2.3807                 1.6164                 1.5036
 Frc consts  --      1.9603                 1.4597                 1.3863
 IR Inten    --     82.9735                10.3688                23.6121

                     58                     59                     60
                      A                      A                      A
 Frequencies --   1272.3819              1281.9101              1299.9106
 Red. masses --      2.0019                 3.3478                 2.6383
 Frc consts  --      1.9096                 3.2414                 2.6267
 IR Inten    --    120.2766               123.5967                39.4036

                     61                     62                     63
                      A                      A                      A
 Frequencies --   1332.4916              1337.5948              1353.8964
 Red. masses --      2.2826                 9.3505                 2.3651
 Frc consts  --      2.3878                 9.8568                 2.5543
 IR Inten    --     10.5133               222.4536                36.7447

                     64                     65                     66
                      A                      A                      A
 Frequencies --   1378.3425              1390.6355              1416.0438
 Red. masses --      1.6655                 1.6298                 2.3161
 Frc consts  --      1.8643                 1.8570                 2.7362
 IR Inten    --     19.0244               154.5276                 3.8239

                     67                     68                     69
                      A                      A                      A
 Frequencies --   1469.0434              1498.1033              1506.4884
 Red. masses --      1.2083                 1.3389                 1.8917
 Frc consts  --      1.5363                 1.7704                 2.5295
 IR Inten    --      1.6675                28.6124                43.9377

                     70                     71                     72
                      A                      A                      A
 Frequencies --   1526.8171              1535.4938              1546.6647
 Red. masses --      1.1317                 1.0888                 1.8816
 Frc consts  --      1.5544                 1.5126                 2.6520
 IR Inten    --     23.1660                42.2306               113.1450

                     73                     74                     75
                      A                      A                      A
 Frequencies --   1645.5125              1670.4812              2934.7291
 Red. masses --      6.0939                 7.5661                 1.0794
 Frc consts  --      9.7218                12.4396                 5.4774
 IR Inten    --     66.8162               207.7480                58.5687

                     76                     77                     78
                      A                      A                      A
 Frequencies --   3041.6138              3134.1449              3155.1709
 Red. masses --      1.0504                 1.0628                 1.0857
 Frc consts  --      5.7255                 6.1510                 6.3680
 IR Inten    --     61.5411                16.8987                12.2491

                     79                     80                     81
                      A                      A                      A
 Frequencies --   3196.3703              3198.4095              3220.6655
 Red. masses --      1.1040                 1.1035                 1.0913
 Frc consts  --      6.6457                 6.6512                 6.6696
 IR Inten    --      2.7840                 2.9685                 6.3413

                     82                     83                     84
                      A                      A                      A
 Frequencies --   3234.6672              3527.3591              3620.0633
 Red. masses --      1.0908                 1.0729                 1.0762
 Frc consts  --      6.7246                 7.8653                 8.3094
 IR Inten    --     17.4928                 7.3944                16.1907

 - Thermochemistry -
 -------------------
 Temperature   298.150 Kelvin.  Pressure   1.00000 Atm.
 Atom     1 has atomic number  6 and mass  12.00000

 Molecular mass:   357.94898 amu.
 Principal axes and moments of inertia in atomic units:
                           1         2         3
     Eigenvalues --  3887.28180********************
           X            0.99997  -0.00375  -0.00714
           Y            0.00366   0.99991  -0.01314
           Z            0.00719   0.01311   0.99989
 This molecule is an asymmetric top.
 Rotational symmetry number  1.
 Warning -- assumption of classical behavior for rotation
           may cause significant error
 Rotational temperatures (Kelvin)      0.02228     0.00676     0.00564
 Rotational constants (GHZ):           0.46427     0.14082     0.11760
 Zero-point vibrational energy     541491.3 (Joules/Mol)
                                  129.41952 (Kcal/Mol)
 Warning -- explicit consideration of  33 degrees of freedom as
           vibrations may cause significant error
 Vibrational temperatures:     29.17    63.50    83.56   111.60   131.79
          (Kelvin)            155.01   174.52   230.79   243.78   266.09
                              288.72   314.06   331.83   358.31   391.98
                              423.80   446.63   472.09   486.83   536.31
                              554.09   596.79   600.64   634.90   691.61
                              707.27   724.38   742.51   757.86   773.51
                              808.39   868.55   887.02   954.85   985.31
                             1010.69  1038.77  1043.05  1132.58  1174.37
                             1235.98  1308.22  1323.09  1374.88  1379.80
                             1421.50  1564.20  1578.34  1621.70  1638.31
                             1645.62  1662.19  1680.25  1694.70  1700.88
                             1781.27  1799.80  1830.67  1844.38  1870.28
                             1917.16  1924.50  1947.95  1983.13  2000.81
                             2037.37  2113.63  2155.44  2167.50  2196.75
                             2209.23  2225.31  2367.53  2403.45  4222.42
                             4376.20  4509.34  4539.59  4598.86  4601.80
                             4633.82  4653.96  5075.08  5208.46

 Zero-point correction=                           0.206243 (Hartree/Particle)
 Thermal correction to Energy=                    0.225219
 Thermal correction to Enthalpy=                  0.226163
 Thermal correction to Gibbs Free Energy=         0.157751
 Sum of electronic and zero-point Energies=          -2530.179177
 Sum of electronic and thermal Energies=             -2530.160201
 Sum of electronic and thermal Enthalpies=           -2530.159257
 Sum of electronic and thermal Free Energies=        -2530.227669

                     E (Thermal)             CV                S
                      KCal/Mol        Cal/Mol-Kelvin    Cal/Mol-Kelvin
 Total                  141.327             71.094            143.986
 Electronic               0.000              0.000              0.000
 Translational            0.889              2.981             43.519
 Rotational               0.889              2.981             34.990
 Vibrational            139.549             65.133             65.476
 Vibration     1          0.593              1.986              6.607
 Vibration     2          0.595              1.980              5.064
 Vibration     3          0.596              1.974              4.522
 Vibration     4          0.599              1.964              3.952
 Vibration     5          0.602              1.955              3.626
 Vibration     6          0.606              1.943              3.309
 Vibration     7          0.609              1.931              3.080
 Vibration     8          0.622              1.891              2.545
 Vibration     9          0.625              1.880              2.442
 Vibration    10          0.631              1.860              2.278
 Vibration    11          0.638              1.839              2.127
 Vibration    12          0.646              1.813              1.973
 Vibration    13          0.652              1.794              1.874
 Vibration    14          0.662              1.764              1.737
 Vibration    15          0.675              1.724              1.581
 Vibration    16          0.689              1.684              1.448
 Vibration    17          0.699              1.654              1.360
 Vibration    18          0.711              1.619              1.269
 Vibration    19          0.719              1.599              1.220
 Vibration    20          0.744              1.528              1.068
 Vibration    21          0.754              1.502              1.019
 Vibration    22          0.778              1.438              0.910
 Vibration    23          0.781              1.432              0.901
 Vibration    24          0.801              1.380              0.823
 Vibration    25          0.837              1.293              0.708
 Vibration    26          0.847              1.269              0.680
 Vibration    27          0.859              1.242              0.650
 Vibration    28          0.871              1.214              0.619
 Vibration    29          0.882              1.191              0.595
 Vibration    30          0.893              1.167              0.570
 Vibration    31          0.918              1.114              0.520
 Vibration    32          0.962              1.024              0.443
 Vibration    33          0.976              0.997              0.422

                           ! Non-Optimized Parameters !
 Normal termination of Gaussian 16 at Wed Jun 29 20:41:41 2022.
