 Gaussian 16, Revision C.01,
 Gaussian 16:  ES64L-G16RevC.01  3-Jul-2019

 --------------------------------------------------
 #M062X/gen 6D INT(grid=ultrafine) OPT Freq=noraman
 --------------------------------------------------

 ---------
 A.29.freq
 ---------
 Symbolic Z-matrix:
 Charge = -1 Multiplicity = 1

 SCF Done:  E(RM062X) =  -1866.61160562     A.U. after   17 cycles
 SCF Done:  E(RM062X) =  -1866.61523522     A.U. after   15 cycles
 SCF Done:  E(RM062X) =  -1866.61615650     A.U. after   16 cycles
 SCF Done:  E(RM062X) =  -1866.61634071     A.U. after   15 cycles
 SCF Done:  E(RM062X) =  -1866.61639769     A.U. after   15 cycles
 SCF Done:  E(RM062X) =  -1866.61647327     A.U. after   15 cycles
 SCF Done:  E(RM062X) =  -1866.61652946     A.U. after   15 cycles
 SCF Done:  E(RM062X) =  -1866.61658135     A.U. after   15 cycles
 SCF Done:  E(RM062X) =  -1866.61661737     A.U. after   16 cycles
 SCF Done:  E(RM062X) =  -1866.61662128     A.U. after   15 cycles
 SCF Done:  E(RM062X) =  -1866.61675211     A.U. after   15 cycles
 SCF Done:  E(RM062X) =  -1866.61676618     A.U. after   15 cycles
 SCF Done:  E(RM062X) =  -1866.61677418     A.U. after   15 cycles
 SCF Done:  E(RM062X) =  -1866.61678061     A.U. after   14 cycles
 SCF Done:  E(RM062X) =  -1866.61678250     A.U. after   13 cycles
 SCF Done:  E(RM062X) =  -1866.61678366     A.U. after   14 cycles
 SCF Done:  E(RM062X) =  -1866.61678391     A.U. after   13 cycles
 SCF Done:  E(RM062X) =  -1866.61678462     A.U. after   12 cycles
 SCF Done:  E(RM062X) =  -1866.61678459     A.U. after   12 cycles
 Optimization completed.
    -- Stationary point found.
 Normal termination of Gaussian 16 at Thu Jun 30 00:08:49 2022.

 ------------------------------------------------------------------
 #N Geom=AllCheck Guess=TCheck SCRF=Check GenChk RM062X/ChkBas Freq
 ------------------------------------------------------------------

 Structure from the checkpoint file:  "/jobfs/48845637.gadi-pbs/Gau-3939210.chk"
 ---------
 A.29.freq
 ---------
 Charge = -1 Multiplicity = 1

                         Standard orientation:
 ---------------------------------------------------------------------
 Center     Atomic      Atomic             Coordinates (Angstroms)
 Number     Number       Type             X           Y           Z
 ---------------------------------------------------------------------
      1          6           0        2.655696   -0.230475   -0.122596
      2          6           0        2.785298    1.155815   -0.003788
      3         17           0        4.352111    1.912790    0.145626
      4          6           0        1.686185    2.009325    0.018769
      5          1           0        1.834785    3.081448    0.116344
      6          6           0        0.403108    1.475239   -0.074420
      7          6           0        0.242437    0.089796   -0.214858
      8          6           0       -1.113746   -0.479608   -0.408324
      9          6           0        1.366940   -0.740245   -0.240390
     10          1           0        1.245112   -1.813260   -0.357923
     11         16           0        4.081627   -1.402771   -0.092111
     12          8           0        3.392870   -2.692438   -0.264617
     13          8           0        4.894373   -0.924109   -1.233020
     14          7           0        4.755290   -1.304701    1.311180
     15          1           0        5.425833   -0.536410    1.256268
     16          7           0       -0.742316    2.287614   -0.069002
     17          6           0       -1.899344    1.654947    0.541440
     18          7           0       -2.164843    0.412610   -0.197816
     19          6           0       -3.073829    2.617554    0.518534
     20          1           0       -0.563817    3.205580    0.326397
     21          1           0       -1.672939    1.390911    1.594591
     22          1           0       -3.953964    2.183995    0.998646
     23          1           0       -3.323464    2.888163   -0.511156
     24          8           0       -1.323034   -1.629985   -0.756114
     25          6           0       -3.496263   -0.114199   -0.222343
     26          6           0       -3.937054   -0.999120    0.774563
     27          6           0       -3.009087   -1.496826    1.850311
     28          6           0       -5.262158   -1.441304    0.716952
     29          1           0       -5.617886   -2.126827    1.483021
     30          6           0       -6.125970   -1.030252   -0.295962
     31          1           0       -7.150537   -1.391701   -0.313342
     32          6           0       -5.668890   -0.166341   -1.288503
     33          1           0       -6.327878    0.148960   -2.092280
     34          6           0       -4.351525    0.283036   -1.248912
     35          1           0       -3.960531    0.942301   -2.018588
     36          1           0       -2.797277    3.524989    1.066461
     37          1           0       -3.575157   -1.894372    2.697421
     38          1           0       -2.347071   -0.707308    2.218677
     39          1           0       -2.368503   -2.290018    1.450239
 ---------------------------------------------------------------------

 SCF Done:  E(RM062X) =  -1866.61678459     A.U. after    2 cycles

 The electronic state is 1-A.
 Alpha  occ. eigenvalues -- -102.56681 -89.97780 -19.53047 -19.45677 -19.45606
 Alpha  occ. eigenvalues --  -14.71605 -14.70810 -14.56156 -10.57384 -10.56451
 Alpha  occ. eigenvalues --  -10.52484 -10.52355 -10.51637 -10.50188 -10.49736
 Alpha  occ. eigenvalues --  -10.49536 -10.49334 -10.49289 -10.49094 -10.47431
 Alpha  occ. eigenvalues --  -10.47178 -10.46808 -10.45841 -10.45467  -9.71316
 Alpha  occ. eigenvalues --   -8.28552  -7.43718  -7.43071  -7.43033  -6.20768
 Alpha  occ. eigenvalues --   -6.20740  -6.20640  -1.08395  -1.05051  -1.01387
 Alpha  occ. eigenvalues --   -0.95412  -0.93445  -0.89662  -0.88997  -0.84178
 Alpha  occ. eigenvalues --   -0.81066  -0.80394  -0.79430  -0.78358  -0.74925
 Alpha  occ. eigenvalues --   -0.73361  -0.71465  -0.65817  -0.64417  -0.62088
 Alpha  occ. eigenvalues --   -0.61462  -0.59710  -0.56043  -0.53925  -0.53195
 Alpha  occ. eigenvalues --   -0.51855  -0.50784  -0.48541  -0.47854  -0.45971
 Alpha  occ. eigenvalues --   -0.44272  -0.44134  -0.43237  -0.42234  -0.41867
 Alpha  occ. eigenvalues --   -0.41747  -0.41563  -0.41231  -0.39973  -0.39444
 Alpha  occ. eigenvalues --   -0.39277  -0.38610  -0.37751  -0.37111  -0.36311
 Alpha  occ. eigenvalues --   -0.35675  -0.35359  -0.34736  -0.34201  -0.32248
 Alpha  occ. eigenvalues --   -0.31634  -0.28174  -0.26993  -0.25356  -0.25197
 Alpha  occ. eigenvalues --   -0.24754  -0.23830  -0.22914  -0.22573  -0.21341
 Alpha  occ. eigenvalues --   -0.20729  -0.19790  -0.17837  -0.16423  -0.13614
 Alpha virt. eigenvalues --    0.06819   0.07357   0.07453   0.07746   0.08268
 Alpha virt. eigenvalues --    0.08352   0.09084   0.09652   0.10012   0.11255
 Alpha virt. eigenvalues --    0.11462   0.11559   0.12153   0.12713   0.13075

 Mulliken charges:
               1
     1  C   -2.642896
     2  C    1.452352
     3  Cl   0.169033
     4  C   -1.079118
     5  H    0.199362
     6  C   -0.136171
     7  C    1.222803
     8  C    0.544589
     9  C   -0.364934
    10  H    0.302503
    11  S    1.428889
    12  O   -0.648571
    13  O   -0.520671
    14  N   -0.721190
    15  H    0.346034
    16  N   -0.356962
    17  C   -0.042608
    18  N   -0.101523
    19  C   -0.588694
    20  H    0.399437
    21  H    0.221057
    22  H    0.257357
    23  H    0.249773
    24  O   -0.427114
    25  C   -1.526166
    26  C    1.117691
    27  C   -0.558782
    28  C   -0.936016
    29  H    0.196190
    30  C    0.081792
    31  H    0.193866
    32  C   -0.207767
    33  H    0.197975
    34  C    0.113128
    35  H    0.220753
    36  H    0.204776
    37  H    0.201450
    38  H    0.242453
    39  H    0.295919
 Sum of Mulliken charges =  -1.00000

 Dipole moment (field-independent basis, Debye):
    X=            -18.6878    Y=             10.5440    Z=              2.5811  Tot=             21.6119
 Quadrupole moment (field-independent basis, Debye-Ang):
   XX=           -243.6374   YY=           -175.2413   ZZ=           -167.7701
   XY=             27.6900   XZ=             -1.0421   YZ=             -0.5657

  Exact polarizability:     359.045       7.836     237.387      14.791      -8.955     184.254
 Approx polarizability:     368.908      17.525     318.002      17.495     -13.651     255.829

                      1                      2                      3
                      A                      A                      A
 Frequencies --     15.6474                34.0227                51.7292
 Red. masses --      5.7995                 5.5599                 7.2081
 Frc consts  --      0.0008                 0.0038                 0.0114
 IR Inten    --      0.5269                 0.9238                 0.0104

                      4                      5                      6
                      A                      A                      A
 Frequencies --     58.5106                70.9344                93.3555
 Red. masses --      5.1745                 4.4399                 6.0149
 Frc consts  --      0.0104                 0.0132                 0.0309
 IR Inten    --      1.3624                 0.5040                 0.8988

                      7                      8                      9
                      A                      A                      A
 Frequencies --    120.7783               130.0332               132.2276
 Red. masses --      2.8715                 5.3977                 2.7907
 Frc consts  --      0.0247                 0.0538                 0.0287
 IR Inten    --      0.6299                 1.4277                 1.2490

                     10                     11                     12
                      A                      A                      A
 Frequencies --    161.2580               177.0197               199.4561
 Red. masses --      2.5685                 8.2460                 6.3398
 Frc consts  --      0.0394                 0.1522                 0.1486
 IR Inten    --      0.4749                 0.4510                 2.9519

                     13                     14                     15
                      A                      A                      A
 Frequencies --    208.5600               233.5113               241.2619
 Red. masses --      3.3982                 4.7568                 7.0720
 Frc consts  --      0.0871                 0.1528                 0.2425
 IR Inten    --      0.6200                 1.6158                 0.8743

                     16                     17                     18
                      A                      A                      A
 Frequencies --    242.6727               275.9237               281.8125
 Red. masses --      4.3131                 6.0842                 1.3054
 Frc consts  --      0.1496                 0.2729                 0.0611
 IR Inten    --      0.9618                11.7673                 0.7298

                     19                     20                     21
                      A                      A                      A
 Frequencies --    316.8584               323.6647               338.1188
 Red. masses --      2.6167                 6.4845                 3.6457
 Frc consts  --      0.1548                 0.4002                 0.2456
 IR Inten    --      1.2979                 1.9711                 9.0134

                     22                     23                     24
                      A                      A                      A
 Frequencies --    382.3707               392.7254               415.6697
 Red. masses --      3.1782                 6.4313                 3.0911
 Frc consts  --      0.2738                 0.5844                 0.3147
 IR Inten    --     14.6205                 3.0565                14.9213

                     25                     26                     27
                      A                      A                      A
 Frequencies --    441.2940               455.3881               463.4826
 Red. masses --      3.9771                 3.4823                 3.7244
 Frc consts  --      0.4563                 0.4255                 0.4714
 IR Inten    --      2.4126                 6.1086                 1.1768

                     28                     29                     30
                      A                      A                      A
 Frequencies --    473.4485               497.5908               507.1863
 Red. masses --      3.0510                 3.6390                 2.2366
 Frc consts  --      0.4029                 0.5309                 0.3390
 IR Inten    --      5.6883                 6.4343                86.9498

                     31                     32                     33
                      A                      A                      A
 Frequencies --    520.0109               529.3666               549.7629
 Red. masses --      3.8839                 5.9234                 4.7180
 Frc consts  --      0.6188                 0.9780                 0.8402
 IR Inten    --     36.0374                15.7918                 3.4644

                     34                     35                     36
                      A                      A                      A
 Frequencies --    569.4105               580.7686               591.3037
 Red. masses --      5.1565                 5.8138                 3.9364
 Frc consts  --      0.9851                 1.1554                 0.8109
 IR Inten    --     19.1934                72.7562               210.4746

                     37                     38                     39
                      A                      A                      A
 Frequencies --    620.8066               649.6485               664.4527
 Red. masses --      3.6782                 6.4720                 4.4757
 Frc consts  --      0.8352                 1.6093                 1.1642
 IR Inten    --     15.5197                21.2934                 9.3270

                     40                     41                     42
                      A                      A                      A
 Frequencies --    680.5473               716.2272               731.9148
 Red. masses --      6.1416                 4.4324                 4.9789
 Frc consts  --      1.6759                 1.3397                 1.5715
 IR Inten    --     14.2622                 3.5230                 2.4275

                     43                     44                     45
                      A                      A                      A
 Frequencies --    743.6053               763.4528               785.1132
 Red. masses --      2.4569                 2.5223                 1.8935
 Frc consts  --      0.8004                 0.8662                 0.6877
 IR Inten    --     29.4214                20.3639                32.6960

                     46                     47                     48
                      A                      A                      A
 Frequencies --    805.4280               812.4994               862.6215
 Red. masses --      5.2337                 4.4354                 1.5812
 Frc consts  --      2.0004                 1.7251                 0.6932
 IR Inten    --     17.7382                 0.3210                26.7100

                     49                     50                     51
                      A                      A                      A
 Frequencies --    886.5584               895.5970               937.8184
 Red. masses --      2.1250                 1.9786                 4.6397
 Frc consts  --      0.9841                 0.9351                 2.4042
 IR Inten    --     10.7707                 5.5395                31.9843

                     52                     53                     54
                      A                      A                      A
 Frequencies --    965.6242               973.9492               982.6495
 Red. masses --      1.9916                 1.9123                 2.0169
 Frc consts  --      1.0941                 1.0688                 1.1475
 IR Inten    --      8.6597                75.0036               109.6861

                     55                     56                     57
                      A                      A                      A
 Frequencies --    986.7536              1007.8241              1017.0786
 Red. masses --      1.9129                 1.3042                 1.5394
 Frc consts  --      1.0974                 0.7805                 0.9383
 IR Inten    --     91.6977                 3.5656                 0.3158

                     58                     59                     60
                      A                      A                      A
 Frequencies --   1029.4276              1067.3237              1081.6637
 Red. masses --      2.3161                 1.5539                 2.0442
 Frc consts  --      1.4461                 1.0430                 1.4091
 IR Inten    --     95.0416                 7.0439                 2.5010

                     61                     62                     63
                      A                      A                      A
 Frequencies --   1102.3298              1126.0006              1133.1084
 Red. masses --      2.7644                 2.0807                 1.7116
 Frc consts  --      1.9791                 1.5543                 1.2948
 IR Inten    --     20.7809               173.9486                46.9937

                     64                     65                     66
                      A                      A                      A
 Frequencies --   1144.7930              1152.1033              1161.4037
 Red. masses --      2.2970                 1.7598                 3.4306
 Frc consts  --      1.7736                 1.3762                 2.7264
 IR Inten    --     10.3313                 1.9439               158.8442

                     67                     68                     69
                      A                      A                      A
 Frequencies --   1180.8521              1191.1807              1216.9183
 Red. masses --      1.1229                 3.4300                 2.8085
 Frc consts  --      0.9225                 2.8675                 2.4504
 IR Inten    --      1.5140                14.6072                 9.0312

                     70                     71                     72
                      A                      A                      A
 Frequencies --   1243.0875              1255.5470              1269.0115
 Red. masses --      2.2364                 1.6444                 4.6397
 Frc consts  --      2.0361                 1.5273                 4.4023
 IR Inten    --     17.5656                63.9542                29.1961

                     73                     74                     75
                      A                      A                      A
 Frequencies --   1279.3292              1287.2506              1310.1800
 Red. masses --      4.6259                 2.9016                 1.4953
 Frc consts  --      4.4608                 2.8328                 1.5123
 IR Inten    --    221.6476                21.1246                 4.3567

                     76                     77                     78
                      A                      A                      A
 Frequencies --   1330.9422              1334.9541              1357.2793
 Red. masses --      5.9968                 3.7501                 3.0465
 Frc consts  --      6.2588                 3.9375                 3.3067
 IR Inten    --      8.9351                89.2532                64.9067

                     79                     80                     81
                      A                      A                      A
 Frequencies --   1374.6810              1410.8572              1430.6281
 Red. masses --      1.5334                 1.5803                 1.3215
 Frc consts  --      1.7073                 1.8533                 1.5935
 IR Inten    --      5.2202               104.9043                24.6747

                     82                     83                     84
                      A                      A                      A
 Frequencies --   1439.1939              1442.1276              1494.1144
 Red. masses --      1.9117                 1.8266                 1.8081
 Frc consts  --      2.3330                 2.2382                 2.3781
 IR Inten    --    282.6180                21.4500                 1.5652

                     85                     86                     87
                      A                      A                      A
 Frequencies --   1500.3483              1506.7764              1511.9045
 Red. masses --      1.7226                 1.1108                 1.2899
 Frc consts  --      2.2847                 1.4859                 1.7372
 IR Inten    --    130.7099                 3.8881                48.7136

                     88                     89                     90
                      A                      A                      A
 Frequencies --   1518.5309              1521.7594              1528.7483
 Red. masses --      1.5881                 1.2595                 1.7086
 Frc consts  --      2.1576                 1.7184                 2.3527
 IR Inten    --      5.3261                21.3047                57.0475

                     91                     92                     93
                      A                      A                      A
 Frequencies --   1551.3795              1651.3417              1661.4870
 Red. masses --      2.7581                 7.5276                 6.4641
 Frc consts  --      3.9111                12.0944                10.5135
 IR Inten    --     92.2459                20.5825                 4.0800

                     94                     95                     96
                      A                      A                      A
 Frequencies --   1679.8639              1689.5333              1796.9598
 Red. masses --      7.0042                 6.6225                12.3794
 Frc consts  --     11.6455                11.1380                23.5519
 IR Inten    --    318.7020                 1.4204               309.1282

                     97                     98                     99
                      A                      A                      A
 Frequencies --   2938.2635              3083.7618              3085.9665
 Red. masses --      1.0809                 1.0359                 1.0378
 Frc consts  --      5.4983                 5.8041                 5.8228
 IR Inten    --     71.4067                19.4391                21.7012

                    100                    101                    102
                      A                      A                      A
 Frequencies --   3153.3892              3158.5255              3161.5570
 Red. masses --      1.1007                 1.0998                 1.1028
 Frc consts  --      6.4486                 6.4643                 6.4947
 IR Inten    --      5.2892                23.6057                24.4790

                    103                    104                    105
                      A                      A                      A
 Frequencies --   3184.4911              3202.0118              3215.9634
 Red. masses --      1.1034                 1.0870                 1.0890
 Frc consts  --      6.5927                 6.5666                 6.6362
 IR Inten    --     10.6663                 7.3128                10.8126

                    106                    107                    108
                      A                      A                      A
 Frequencies --   3216.8240              3227.5136              3238.5279
 Red. masses --      1.0915                 1.0934                 1.0976
 Frc consts  --      6.6546                 6.7105                 6.7824
 IR Inten    --      9.4432                31.8742                17.0160

                    109                    110                    111
                      A                      A                      A
 Frequencies --   3249.6092              3523.0329              3580.4265
 Red. masses --      1.0902                 1.0729                 1.0756
 Frc consts  --      6.7832                 7.8460                 8.1239
 IR Inten    --     12.0396                 6.3848                 6.9310

 - Thermochemistry -
 -------------------
 Temperature   298.150 Kelvin.  Pressure   1.00000 Atm.
 Atom     1 has atomic number  6 and mass  12.00000

 Molecular mass:   364.05227 amu.
 Principal axes and moments of inertia in atomic units:
                           1         2         3
     Eigenvalues --  3647.20139********************
           X            1.00000  -0.00247  -0.00135
           Y            0.00246   0.99994  -0.01108
           Z            0.00137   0.01108   0.99994
 This molecule is an asymmetric top.
 Rotational symmetry number  1.
 Warning -- assumption of classical behavior for rotation
           may cause significant error
 Rotational temperatures (Kelvin)      0.02375     0.00500     0.00442
 Rotational constants (GHZ):           0.49483     0.10410     0.09219
 Zero-point vibrational energy     776089.9 (Joules/Mol)
                                  185.48993 (Kcal/Mol)
 Warning -- explicit consideration of  36 degrees of freedom as
           vibrations may cause significant error
 Vibrational temperatures:     22.51    48.95    74.43    84.18   102.06
          (Kelvin)            134.32   173.77   187.09   190.25   232.01
                              254.69   286.97   300.07   335.97   347.12
                              349.15   396.99   405.47   455.89   465.68
                              486.48   550.15   565.04   598.06   634.92
                              655.20   666.85   681.19   715.92   729.73
                              748.18   761.64   790.99   819.25   835.60
                              850.75   893.20   934.70   956.00   979.16
                             1030.49  1053.06  1069.88  1098.44  1129.60
                             1158.83  1169.01  1241.12  1275.56  1288.56
                             1349.31  1389.32  1401.30  1413.81  1419.72
                             1450.03  1463.35  1481.12  1535.64  1556.27
                             1586.01  1620.06  1630.29  1647.10  1657.62
                             1671.00  1698.98  1713.84  1750.87  1788.53
                             1806.45  1825.82  1840.67  1852.07  1885.06
                             1914.93  1920.70  1952.82  1977.86  2029.91
                             2058.35  2070.68  2074.90  2149.70  2158.67
                             2167.92  2175.29  2184.83  2189.47  2199.53
                             2232.09  2375.91  2390.51  2416.95  2430.86
                             2585.42  4227.51  4436.85  4440.02  4537.02
                             4544.41  4548.78  4581.77  4606.98  4627.05
                             4628.29  4643.67  4659.52  4675.46  5068.86
                             5151.44

 Zero-point correction=                           0.295597 (Hartree/Particle)
 Thermal correction to Energy=                    0.316932
 Thermal correction to Enthalpy=                  0.317877
 Thermal correction to Gibbs Free Energy=         0.244214
 Sum of electronic and zero-point Energies=          -1866.321188
 Sum of electronic and thermal Energies=             -1866.299852
 Sum of electronic and thermal Enthalpies=           -1866.298908
 Sum of electronic and thermal Free Energies=        -1866.372570

                     E (Thermal)             CV                S
                      KCal/Mol        Cal/Mol-Kelvin    Cal/Mol-Kelvin
 Total                  198.878             82.397            155.035
 Electronic               0.000              0.000              0.000
 Translational            0.889              2.981             43.570
 Rotational               0.889              2.981             35.469
 Vibrational            197.101             76.436             75.997
 Vibration     1          0.593              1.986              7.122
 Vibration     2          0.594              1.983              5.580
 Vibration     3          0.596              1.977              4.750
 Vibration     4          0.596              1.974              4.507
 Vibration     5          0.598              1.968              4.127
 Vibration     6          0.602              1.954              3.588
 Vibration     7          0.609              1.932              3.088
 Vibration     8          0.612              1.923              2.946
 Vibration     9          0.612              1.921              2.913
 Vibration    10          0.622              1.890              2.535
 Vibration    11          0.628              1.871              2.360
 Vibration    12          0.638              1.841              2.138
 Vibration    13          0.642              1.828              2.056
 Vibration    14          0.654              1.790              1.852
 Vibration    15          0.658              1.777              1.794
 Vibration    16          0.659              1.775              1.783
 Vibration    17          0.678              1.718              1.559
 Vibration    18          0.681              1.707              1.523
 Vibration    19          0.704              1.641              1.326
 Vibration    20          0.708              1.628              1.292
 Vibration    21          0.718              1.599              1.221
 Vibration    22          0.752              1.508              1.030
 Vibration    23          0.760              1.486              0.990
 Vibration    24          0.779              1.436              0.907
 Vibration    25          0.801              1.380              0.823
 Vibration    26          0.814              1.349              0.780
 Vibration    27          0.821              1.331              0.756
 Vibration    28          0.830              1.309              0.728
 Vibration    29          0.853              1.255              0.664
 Vibration    30          0.862              1.234              0.640
 Vibration    31          0.875              1.206              0.610
 Vibration    32          0.884              1.185              0.589
 Vibration    33          0.905              1.140              0.545
 Vibration    34          0.925              1.097              0.505
 Vibration    35          0.937              1.073              0.484
 Vibration    36          0.949              1.050              0.465

 Optimization completed.
    -- Stationary point found.
 Normal termination of Gaussian 16 at Thu Jun 30 00:39:14 2022.
