 Gaussian 16, Revision C.01,
 Gaussian 16:  ES64L-G16RevC.01  3-Jul-2019

 --------------------------------------------------
 #M062X/gen 6D INT(grid=ultrafine) OPT Freq=noraman
 --------------------------------------------------

 -------------
 A.3.a1b2.freq
 -------------
 Symbolic Z-matrix:
 Charge = -1 Multiplicity = 1

 SCF Done:  E(RM062X) =  -2214.11222039     A.U. after   18 cycles
 SCF Done:  E(RM062X) =  -2214.11368014     A.U. after   15 cycles
 SCF Done:  E(RM062X) =  -2214.11440260     A.U. after   14 cycles
 SCF Done:  E(RM062X) =  -2214.11451615     A.U. after   15 cycles
 SCF Done:  E(RM062X) =  -2214.11439528     A.U. after   15 cycles
 SCF Done:  E(RM062X) =  -2214.11463330     A.U. after   15 cycles
 SCF Done:  E(RM062X) =  -2214.11466113     A.U. after   13 cycles
 SCF Done:  E(RM062X) =  -2214.11466687     A.U. after   12 cycles
 SCF Done:  E(RM062X) =  -2214.11466752     A.U. after   12 cycles
 Optimization completed.
    -- Stationary point found.
 Normal termination of Gaussian 16 at Fri May 20 15:12:50 2022.

 ------------------------------------------------------------------
 #N Geom=AllCheck Guess=TCheck SCRF=Check GenChk RM062X/ChkBas Freq
 ------------------------------------------------------------------

 Structure from the checkpoint file:  "/jobfs/40738522.gadi-pbs/Gau-2187152.chk"
 -------------
 A.3.a1b2.freq
 -------------
 Charge = -1 Multiplicity = 1

                         Standard orientation:
 ---------------------------------------------------------------------
 Center     Atomic      Atomic             Coordinates (Angstroms)
 Number     Number       Type             X           Y           Z
 ---------------------------------------------------------------------
      1          6           0       -0.402942    0.068536   -0.024656
      2          6           0        0.297358   -1.149002   -0.011571
      3         17           0       -0.526869   -2.693620    0.023250
      4          6           0        1.685670   -1.245962   -0.007187
      5          1           0        2.169167   -2.216004   -0.003070
      6          6           0        2.425862   -0.074872   -0.001968
      7         17           0        4.174849   -0.161330    0.000881
      8          6           0        1.802350    1.158797    0.008735
      9          1           0        2.381477    2.074927    0.023080
     10          6           0        0.405020    1.214904    0.001978
     11         17           0       -0.224586    2.843957    0.039039
     12         16           0       -2.293198    0.040911   -0.032277
     13          8           0       -2.656326    1.451292   -0.173387
     14          8           0       -2.533208   -0.816390   -1.210066
     15          7           0       -2.731127   -0.527830    1.346301
     16          1           0       -2.702928   -1.545420    1.274059
 ---------------------------------------------------------------------

 SCF Done:  E(RM062X) =  -2214.11466752     A.U. after    2 cycles

 The electronic state is 1-A.
 Alpha  occ. eigenvalues -- -102.59350-102.56746-102.55869 -89.98975 -19.46635
 Alpha  occ. eigenvalues --  -19.46578 -14.57266 -10.53327 -10.52867 -10.52746
 Alpha  occ. eigenvalues --  -10.48039 -10.47909 -10.47604  -9.74023  -9.71388
 Alpha  occ. eigenvalues --   -9.70500  -8.29717  -7.46418  -7.45769  -7.45764
 Alpha  occ. eigenvalues --   -7.43799  -7.43136  -7.43097  -7.42921  -7.42250
 Alpha  occ. eigenvalues --   -7.42188  -6.21922  -6.21919  -6.21795  -1.06333
 Alpha  occ. eigenvalues --   -0.94654  -0.92504  -0.88149  -0.86810  -0.81587
 Alpha  occ. eigenvalues --   -0.80632  -0.73706  -0.73312  -0.59817  -0.58913
 Alpha  occ. eigenvalues --   -0.54206  -0.48299  -0.47242  -0.44024  -0.42285
 Alpha  occ. eigenvalues --   -0.40543  -0.40395  -0.39519  -0.36637  -0.36321
 Alpha  occ. eigenvalues --   -0.34544  -0.33986  -0.32314  -0.30243  -0.28947
 Alpha  occ. eigenvalues --   -0.27083  -0.26879  -0.25778  -0.23783  -0.21598
 Alpha  occ. eigenvalues --   -0.20873  -0.20077  -0.19673  -0.17403  -0.14873
 Alpha virt. eigenvalues --    0.09344   0.09761   0.10353   0.11544   0.11855
 Alpha virt. eigenvalues --    0.12083   0.13953   0.14958   0.15295   0.16624
 Alpha virt. eigenvalues --    0.17644   0.17977   0.18234   0.18847   0.19247

 Mulliken charges:
               1
     1  C   -2.546768
     2  C    0.914104
     3  Cl   0.149624
     4  C   -0.130697
     5  H    0.230306
     6  C   -0.014311
     7  Cl   0.151291
     8  C   -0.144193
     9  H    0.227499
    10  C    0.286840
    11  Cl   0.202454
    12  S    1.237073
    13  O   -0.602857
    14  O   -0.568516
    15  N   -0.743282
    16  H    0.351433
 Sum of Mulliken charges =  -1.00000

 Dipole moment (field-independent basis, Debye):
    X=              9.5463    Y=             -1.3937    Z=             -0.0109  Tot=              9.6475
 Quadrupole moment (field-independent basis, Debye-Ang):
   XX=           -146.3016   YY=           -112.9670   ZZ=           -116.1282
   XY=              4.1148   XZ=              0.4030   YZ=             -2.0945

  Exact polarizability:     188.748       2.549     162.338      -4.738      -1.254      93.160
 Approx polarizability:     210.685       2.228     211.614      -4.702      -0.589     125.988

                      1                      2                      3
                      A                      A                      A
 Frequencies --     33.3852                57.2714               140.9590
 Red. masses --     19.5569                10.6816                14.0476
 Frc consts  --      0.0128                 0.0206                 0.1645
 IR Inten    --      2.1002                 0.2889                 0.1677

                      4                      5                      6
                      A                      A                      A
 Frequencies --    169.9615               195.5898               200.3628
 Red. masses --     15.4635                 5.3112                14.6029
 Frc consts  --      0.2632                 0.1197                 0.3454
 IR Inten    --      1.7380                 0.0736                 0.4602

                      7                      8                      9
                      A                      A                      A
 Frequencies --    203.8967               215.9744               232.9956
 Red. masses --     11.0818                16.2696                22.2625
 Frc consts  --      0.2714                 0.4471                 0.7121
 IR Inten    --      0.1474                 0.0584                 0.2878

                     10                     11                     12
                      A                      A                      A
 Frequencies --    264.9812               376.2941               380.5223
 Red. masses --      8.0194                15.2432                16.0475
 Frc consts  --      0.3318                 1.2717                 1.3690
 IR Inten    --      5.0658                 0.8607                 0.0807

                     13                     14                     15
                      A                      A                      A
 Frequencies --    427.3720               450.7370               486.2974
 Red. masses --      2.9131                 7.9651                 9.8449
 Frc consts  --      0.3135                 0.9534                 1.3717
 IR Inten    --     36.0707                 3.6609                24.5827

                     16                     17                     18
                      A                      A                      A
 Frequencies --    510.2494               538.6989               542.9785
 Red. masses --     10.5648                 1.5568                 5.2486
 Frc consts  --      1.6206                 0.2662                 0.9117
 IR Inten    --     13.7558                52.8439                 6.8234

                     19                     20                     21
                      A                      A                      A
 Frequencies --    547.3094               580.3308               596.6223
 Red. masses --      5.7472                 4.5434                16.3149
 Frc consts  --      1.0143                 0.9015                 3.4216
 IR Inten    --      5.4762                21.1522               206.5572

                     22                     23                     24
                      A                      A                      A
 Frequencies --    746.5357               805.9200               834.0666
 Red. masses --      5.8512                11.5081                11.4379
 Frc consts  --      1.9213                 4.4039                 4.6881
 IR Inten    --      0.9719                77.6078               101.5767

                     25                     26                     27
                      A                      A                      A
 Frequencies --    877.6837               887.2369               972.5293
 Red. masses --      1.4306                 1.3806                13.7998
 Frc consts  --      0.6493                 0.6403                 7.6900
 IR Inten    --     29.0536                 1.5374               202.2761

                     28                     29                     30
                      A                      A                      A
 Frequencies --   1051.7910              1132.0786              1142.6788
 Red. masses --      8.0830                 1.7453                 2.0636
 Frc consts  --      5.2684                 1.3179                 1.5876
 IR Inten    --     22.0368               121.1584                33.8869

                     31                     32                     33
                      A                      A                      A
 Frequencies --   1170.7010              1177.1671              1213.2968
 Red. masses --      2.5994                 5.6162                 1.5842
 Frc consts  --      2.0990                 4.5853                 1.3740
 IR Inten    --     39.3495               177.4067                11.7582

                     34                     35                     36
                      A                      A                      A
 Frequencies --   1285.3206              1307.9143              1409.9050
 Red. masses --     10.2690                 7.5693                 3.0695
 Frc consts  --      9.9954                 7.6290                 3.5950
 IR Inten    --     12.8127               221.5900               103.0831

                     37                     38                     39
                      A                      A                      A
 Frequencies --   1444.7652              1625.1896              1639.5277
 Red. masses --      3.4644                 9.4970                 6.9479
 Frc consts  --      4.2606                14.7790                11.0038
 IR Inten    --     16.9372                90.3800                76.2370

                     40                     41                     42
                      A                      A                      A
 Frequencies --   3256.9207              3258.0143              3538.4704
 Red. masses --      1.0927                 1.0929                 1.0728
 Frc consts  --      6.8293                 6.8348                 7.9138
 IR Inten    --      0.3591                 0.2668                 6.7783

 - Thermochemistry -
 -------------------
 Temperature   298.150 Kelvin.  Pressure   1.00000 Atm.
 Atom     1 has atomic number  6 and mass  12.00000

 Molecular mass:   257.89501 amu.
 Principal axes and moments of inertia in atomic units:
                           1         2         3
     Eigenvalues --  2559.963034737.301536932.91550
           X            0.99997   0.00682  -0.00273
           Y           -0.00683   0.99997  -0.00319
           Z            0.00271   0.00321   0.99999
 This molecule is an asymmetric top.
 Rotational symmetry number  1.
 Warning -- assumption of classical behavior for rotation
           may cause significant error
 Rotational temperatures (Kelvin)      0.03383     0.01828     0.01249
 Rotational constants (GHZ):           0.70499     0.38096     0.26031
 Zero-point vibrational energy     226874.8 (Joules/Mol)
                                   54.22438 (Kcal/Mol)
 Warning -- explicit consideration of  21 degrees of freedom as
           vibrations may cause significant error
 Vibrational temperatures:     48.03    82.40   202.81   244.54   281.41
          (Kelvin)            288.28   293.36   310.74   335.23   381.25
                              541.40   547.49   614.89   648.51   699.67
                              734.14   775.07   781.22   787.46   834.97
                              858.41  1074.10  1159.54  1200.04  1262.79
                             1276.54  1399.25  1513.29  1628.81  1644.06
                             1684.38  1693.68  1745.66  1849.29  1881.80
                             2028.54  2078.69  2338.29  2358.91  4685.98
                             4687.56  5091.07

 Zero-point correction=                           0.086412 (Hartree/Particle)
 Thermal correction to Energy=                    0.098539
 Thermal correction to Enthalpy=                  0.099483
 Thermal correction to Gibbs Free Energy=         0.046380
 Sum of electronic and zero-point Energies=          -2214.028255
 Sum of electronic and thermal Energies=             -2214.016128
 Sum of electronic and thermal Enthalpies=           -2214.015184
 Sum of electronic and thermal Free Energies=        -2214.068287

                     E (Thermal)             CV                S
                      KCal/Mol        Cal/Mol-Kelvin    Cal/Mol-Kelvin
 Total                   61.834             43.951            111.764
 Electronic               0.000              0.000              0.000
 Translational            0.889              2.981             42.542
 Rotational               0.889              2.981             32.797
 Vibrational             60.057             37.989             36.425
 Vibration     1          0.594              1.983              5.617
 Vibration     2          0.596              1.975              4.549
 Vibration     3          0.615              1.912              2.791
 Vibration     4          0.625              1.879              2.436
 Vibration     5          0.636              1.846              2.174
 Vibration     6          0.638              1.839              2.130
 Vibration     7          0.640              1.834              2.098
 Vibration     8          0.645              1.817              1.993
 Vibration     9          0.654              1.790              1.856
 Vibration    10          0.671              1.737              1.629
 Vibration    11          0.747              1.521              1.054
 Vibration    12          0.750              1.512              1.037
 Vibration    13          0.789              1.411              0.867
 Vibration    14          0.810              1.359              0.794
 Vibration    15          0.842              1.280              0.693
 Vibration    16          0.865              1.227              0.633
 Vibration    17          0.894              1.164              0.568
 Vibration    18          0.898              1.155              0.559
 Vibration    19          0.903              1.146              0.550
 Vibration    20          0.937              1.074              0.485
 Vibration    21          0.954              1.039              0.456

                           ! Non-Optimized Parameters !
 Normal termination of Gaussian 16 at Fri May 20 15:17:48 2022.
