 Gaussian 16, Revision C.01,
 Gaussian 16:  ES64L-G16RevC.01  3-Jul-2019

 --------------------------------------------------
 #M062X/gen 6D INT(grid=ultrafine) OPT Freq=noraman
 --------------------------------------------------

 ---------
 A.30.freq
 ---------
 Symbolic Z-matrix:
 Charge = -1 Multiplicity = 1

 SCF Done:  E(RM062X) =  -1869.61771511     A.U. after   17 cycles
 SCF Done:  E(RM062X) =  -1869.62183914     A.U. after   15 cycles
 SCF Done:  E(RM062X) =  -1869.62290312     A.U. after   15 cycles
 SCF Done:  E(RM062X) =  -1869.62229681     A.U. after   17 cycles
 SCF Done:  E(RM062X) =  -1869.62271015     A.U. after   16 cycles
 SCF Done:  E(RM062X) =  -1869.62327553     A.U. after   12 cycles
 SCF Done:  E(RM062X) =  -1869.62360622     A.U. after   16 cycles
 SCF Done:  E(RM062X) =  -1869.62371187     A.U. after   15 cycles
 SCF Done:  E(RM062X) =  -1869.62374170     A.U. after   14 cycles
 SCF Done:  E(RM062X) =  -1869.62375474     A.U. after   13 cycles
 SCF Done:  E(RM062X) =  -1869.62376018     A.U. after   13 cycles
 SCF Done:  E(RM062X) =  -1869.62376175     A.U. after   12 cycles
 SCF Done:  E(RM062X) =  -1869.62376225     A.U. after   11 cycles
 Optimization completed.
    -- Stationary point found.
 Normal termination of Gaussian 16 at Fri Jul  1 09:14:11 2022.

 ------------------------------------------------------------------
 #N Geom=AllCheck Guess=TCheck SCRF=Check GenChk RM062X/ChkBas Freq
 ------------------------------------------------------------------

 Structure from the checkpoint file:  "/jobfs/49768610.gadi-pbs/Gau-420347.chk"
 ---------
 A.30.freq
 ---------
 Charge = -1 Multiplicity = 1

                         Standard orientation:
 ---------------------------------------------------------------------
 Center     Atomic      Atomic             Coordinates (Angstroms)
 Number     Number       Type             X           Y           Z
 ---------------------------------------------------------------------
      1          6           0        0.942094   -0.466821   -0.024094
      2          6           0        1.092839    0.929831   -0.009384
      3          6           0        2.444860    1.618586   -0.031287
      4          6           0       -0.015171    1.772131   -0.019391
      5          1           0        0.125966    2.848568   -0.031578
      6          6           0       -1.317944    1.267677   -0.020404
      7          6           0       -1.463199   -0.128376   -0.020432
      8         16           0       -3.087951   -0.853449   -0.003137
      9          6           0       -0.354561   -0.972211   -0.030367
     10          1           0       -0.477608   -2.052395   -0.064465
     11         16           0        2.318128   -1.711683    0.011877
     12          8           0        1.601124   -2.919762   -0.426362
     13          8           0        3.276735   -1.118904   -0.944650
     14          7           0        2.802592   -1.850386    1.483768
     15          1           0        3.502926   -1.123278    1.632692
     16          7           0       -2.405679    2.151731   -0.098789
     17          6           0       -3.710140    1.654553    0.305442
     18          7           0       -4.049623    0.459067   -0.448792
     19          8           0       -3.219293   -1.833362   -1.066953
     20          8           0       -3.453946   -1.183345    1.364538
     21          1           0       -2.189450    3.081383    0.241449
     22          9           0        2.322919    2.919491    0.359714
     23          9           0        2.982186    1.663133   -1.254389
     24          9           0        3.333794    1.078302    0.805732
     25          1           0       -3.757200    1.379623    1.368152
     26          1           0       -4.457178    2.425624    0.103949
     27          1           0       -3.961038    0.602116   -1.455956
 ---------------------------------------------------------------------

 SCF Done:  E(RM062X) =  -1869.62376225     A.U. after    1 cycles

 The electronic state is 1-A.
 Alpha  occ. eigenvalues --  -90.08355 -89.98872 -25.20252 -25.19749 -25.19354
 Alpha  occ. eigenvalues --  -19.56479 -19.56272 -19.46727 -19.46724 -14.72927
 Alpha  occ. eigenvalues --  -14.72414 -14.57139 -10.71373 -10.56798 -10.54008
 Alpha  occ. eigenvalues --  -10.50801 -10.50139 -10.48902 -10.47879 -10.47342
 Alpha  occ. eigenvalues --   -8.39385  -8.29643  -6.31611  -6.31540  -6.31434
 Alpha  occ. eigenvalues --   -6.21857  -6.21837  -6.21725  -1.36564  -1.27282
 Alpha  occ. eigenvalues --   -1.26938  -1.16659  -1.06240  -1.05037  -1.02274
 Alpha  occ. eigenvalues --   -0.94702  -0.94664  -0.89107  -0.81809  -0.81328
 Alpha  occ. eigenvalues --   -0.77734  -0.73056  -0.70804  -0.67125  -0.63706
 Alpha  occ. eigenvalues --   -0.61535  -0.58892  -0.58817  -0.57447  -0.56279
 Alpha  occ. eigenvalues --   -0.53912  -0.52341  -0.51165  -0.48562  -0.47343
 Alpha  occ. eigenvalues --   -0.46989  -0.46532  -0.45017  -0.44381  -0.43999
 Alpha  occ. eigenvalues --   -0.43268  -0.43109  -0.42751  -0.41165  -0.40786
 Alpha  occ. eigenvalues --   -0.40355  -0.38225  -0.37251  -0.36665  -0.34988
 Alpha  occ. eigenvalues --   -0.33047  -0.32657  -0.31355  -0.30767  -0.29988
 Alpha  occ. eigenvalues --   -0.28009  -0.26871  -0.24186  -0.23503  -0.22399
 Alpha  occ. eigenvalues --   -0.21291  -0.19319  -0.17497  -0.14615
 Alpha virt. eigenvalues --    0.06362   0.07320   0.08480   0.09409   0.10523
 Alpha virt. eigenvalues --    0.11205   0.11935   0.13082   0.13876   0.14203
 Alpha virt. eigenvalues --    0.14517   0.15468   0.16202   0.16736   0.17097

 Mulliken charges:
               1
     1  C   -1.644681
     2  C    0.441547
     3  C    1.595250
     4  C   -1.329790
     5  H    0.214265
     6  C   -0.094560
     7  C    0.126803
     8  S    1.790845
     9  C   -0.263015
    10  H    0.299471
    11  S    1.568626
    12  O   -0.613489
    13  O   -0.580422
    14  N   -0.776192
    15  H    0.358466
    16  N   -0.484250
    17  C   -0.277897
    18  N   -0.829885
    19  O   -0.485919
    20  O   -0.481191
    21  H    0.404421
    22  F   -0.355260
    23  F   -0.233709
    24  F   -0.296785
    25  H    0.257862
    26  H    0.216755
    27  H    0.472731
 Sum of Mulliken charges =  -1.00000

 Dipole moment (field-independent basis, Debye):
    X=             -8.8052    Y=             13.0609    Z=             -0.2090  Tot=             15.7532
 Quadrupole moment (field-independent basis, Debye-Ang):
   XX=           -177.7410   YY=           -155.5046   ZZ=           -143.6674
   XY=             -2.7145   XZ=              4.7799   YZ=              3.6268

  Exact polarizability:     219.627     -16.091     179.150       4.412      -2.093     123.804
 Approx polarizability:     238.651      -8.681     232.428       3.394      -1.574     175.053

                      1                      2                      3
                      A                      A                      A
 Frequencies --     32.7438                50.8446                75.4349
 Red. masses --      8.9694                10.6200                 7.4096
 Frc consts  --      0.0057                 0.0162                 0.0248
 IR Inten    --      1.0227                 0.0208                 0.3524

                      4                      5                      6
                      A                      A                      A
 Frequencies --     94.0002               111.7772               125.8464
 Red. masses --     11.5555                 7.7054                11.8493
 Frc consts  --      0.0602                 0.0567                 0.1106
 IR Inten    --      0.2404                 1.7760                 0.5391

                      7                      8                      9
                      A                      A                      A
 Frequencies --    156.8741               164.6459               201.4849
 Red. masses --      9.5630                14.8439                 7.6918
 Frc consts  --      0.1387                 0.2371                 0.1840
 IR Inten    --      0.3773                 0.9593                 0.8593

                     10                     11                     12
                      A                      A                      A
 Frequencies --    215.1253               224.0205               263.5031
 Red. masses --     11.0604                12.0830                 3.9088
 Frc consts  --      0.3016                 0.3573                 0.1599
 IR Inten    --      1.1396                 0.6016                12.8330

                     13                     14                     15
                      A                      A                      A
 Frequencies --    282.0473               305.9850               315.5038
 Red. masses --      8.3335                 4.6935                 7.4619
 Frc consts  --      0.3906                 0.2589                 0.4376
 IR Inten    --     11.4130                 2.0218                 4.0559

                     16                     17                     18
                      A                      A                      A
 Frequencies --    324.8148               355.3267               410.1292
 Red. masses --      5.7020                 7.9169                 3.6499
 Frc consts  --      0.3544                 0.5889                 0.3617
 IR Inten    --      2.7488                 2.6500                20.9902

                     19                     20                     21
                      A                      A                      A
 Frequencies --    420.2983               452.9489               465.9905
 Red. masses --      4.1114                 4.9041                 3.3677
 Frc consts  --      0.4279                 0.5928                 0.4309
 IR Inten    --     11.4475                68.4833                30.4448

                     22                     23                     24
                      A                      A                      A
 Frequencies --    489.8049               494.0324               511.2906
 Red. masses --      3.4808                 2.7911                 4.9264
 Frc consts  --      0.4920                 0.4014                 0.7588
 IR Inten    --     20.6268                39.6036                18.2317

                     25                     26                     27
                      A                      A                      A
 Frequencies --    519.8117               525.0849               532.9379
 Red. masses --     10.5632                 5.7220                 1.8368
 Frc consts  --      1.6817                 0.9295                 0.3074
 IR Inten    --     21.3283                 3.7290               104.3323

                     28                     29                     30
                      A                      A                      A
 Frequencies --    551.4380               582.3905               594.9255
 Red. masses --      5.6537                 9.5357                10.2396
 Frc consts  --      1.0129                 1.9056                 2.1353
 IR Inten    --     77.4592                22.0118                68.4312

                     31                     32                     33
                      A                      A                      A
 Frequencies --    598.3220               652.1984               695.2965
 Red. masses --      7.4116                 8.3796                 7.8735
 Frc consts  --      1.5633                 2.1001                 2.2426
 IR Inten    --     21.1904                49.8926                12.5309

                     34                     35                     36
                      A                      A                      A
 Frequencies --    705.3942               734.0259               757.4409
 Red. masses --      4.2449                 4.4988                 4.0353
 Frc consts  --      1.2445                 1.4281                 1.3640
 IR Inten    --     68.6799                 6.5714                 1.9711

                     37                     38                     39
                      A                      A                      A
 Frequencies --    765.0326               776.4404               890.8763
 Red. masses --      7.8041                 3.0238                 2.1116
 Frc consts  --      2.6911                 1.0740                 0.9874
 IR Inten    --    248.8111                51.2387                44.3964

                     40                     41                     42
                      A                      A                      A
 Frequencies --    898.3063               933.5358               956.9542
 Red. masses --      1.6759                 6.6209                 1.4067
 Frc consts  --      0.7968                 3.3996                 0.7590
 IR Inten    --     23.8227                23.5821                10.6133

                     43                     44                     45
                      A                      A                      A
 Frequencies --    975.3151              1059.2211              1102.1214
 Red. masses --     10.9102                 3.3787                 3.9482
 Frc consts  --      6.1147                 2.2334                 2.8256
 IR Inten    --    248.4986                74.3515                39.9586

                     46                     47                     48
                      A                      A                      A
 Frequencies --   1105.4874              1126.6472              1135.9373
 Red. masses --      2.2702                 2.3883                 2.6005
 Frc consts  --      1.6346                 1.7862                 1.9771
 IR Inten    --     89.6204               148.2218               116.9130

                     49                     50                     51
                      A                      A                      A
 Frequencies --   1150.5877              1169.2523              1180.7473
 Red. masses --      3.0017                 3.6169                10.4677
 Frc consts  --      2.3413                 2.9135                 8.5983
 IR Inten    --     28.5110                93.0836               130.9756

                     52                     53                     54
                      A                      A                      A
 Frequencies --   1191.5685              1253.9851              1261.9063
 Red. masses --      4.4443                 3.8056                 3.7537
 Frc consts  --      3.7178                 3.5258                 3.5218
 IR Inten    --    361.0584               201.2327               113.1173

                     55                     56                     57
                      A                      A                      A
 Frequencies --   1278.0669              1285.6610              1292.4652
 Red. masses --      2.0143                 1.8698                 1.7060
 Frc consts  --      1.9386                 1.8209                 1.6791
 IR Inten    --     37.4261               102.6338                17.1344

                     58                     59                     60
                      A                      A                      A
 Frequencies --   1326.3056              1350.3004              1365.9409
 Red. masses --      3.4717                 7.0562                 4.3364
 Frc consts  --      3.5982                 7.5802                 4.7670
 IR Inten    --    151.6633               161.7886               154.6848

                     61                     62                     63
                      A                      A                      A
 Frequencies --   1384.6171              1421.0999              1456.6054
 Red. masses --      1.7378                 2.9187                 1.4200
 Frc consts  --      1.9629                 3.4729                 1.7751
 IR Inten    --     80.0297                97.9609                49.9230

                     64                     65                     66
                      A                      A                      A
 Frequencies --   1522.3952              1528.4353              1536.0178
 Red. masses --      2.0465                 2.0770                 1.3758
 Frc consts  --      2.7945                 2.8588                 1.9125
 IR Inten    --     34.0252               149.8936                42.5740

                     67                     68                     69
                      A                      A                      A
 Frequencies --   1641.6779              1687.4624              3072.8477
 Red. masses --      7.2769                 6.9232                 1.0660
 Frc consts  --     11.5551                11.6152                 5.9307
 IR Inten    --     16.1424                34.5304                41.1154

                     70                     71                     72
                      A                      A                      A
 Frequencies --   3147.2604              3229.6317              3231.3038
 Red. masses --      1.1007                 1.0902                 1.0908
 Frc consts  --      6.4235                 6.6995                 6.7107
 IR Inten    --     26.9223                 1.1260                20.9076

                     73                     74                     75
                      A                      A                      A
 Frequencies --   3533.8418              3542.0648              3613.2904
 Red. masses --      1.0748                 1.0726                 1.0763
 Frc consts  --      7.9077                 7.9286                 8.2790
 IR Inten    --     28.5125                 8.7329                15.7164

 - Thermochemistry -
 -------------------
 Temperature   298.150 Kelvin.  Pressure   1.00000 Atm.
 Atom     1 has atomic number  6 and mass  12.00000

 Molecular mass:   329.98301 amu.
 Principal axes and moments of inertia in atomic units:
                           1         2         3
     Eigenvalues --  3675.935828850.58369**********
           X            0.99956  -0.02961   0.00248
           Y            0.02961   0.99956   0.00042
           Z           -0.00249  -0.00035   1.00000
 This molecule is an asymmetric top.
 Rotational symmetry number  1.
 Warning -- assumption of classical behavior for rotation
           may cause significant error
 Rotational temperatures (Kelvin)      0.02356     0.00979     0.00757
 Rotational constants (GHZ):           0.49096     0.20391     0.15770
 Zero-point vibrational energy     456823.7 (Joules/Mol)
                                  109.18348 (Kcal/Mol)
 Warning -- explicit consideration of  31 degrees of freedom as
           vibrations may cause significant error
 Vibrational temperatures:     47.11    73.15   108.53   135.25   160.82
          (Kelvin)            181.06   225.71   236.89   289.89   309.52
                              322.32   379.12   405.80   440.24   453.94
                              467.34   511.24   590.08   604.72   651.69
                              670.46   704.72   710.80   735.63   747.89
                              755.48   766.78   793.40   837.93   855.97
                              860.85   938.37  1000.38  1014.90  1056.10
                             1089.79  1100.71  1117.12  1281.77  1292.46
                             1343.15  1376.84  1403.26  1523.98  1585.71
                             1590.55  1620.99  1634.36  1655.44  1682.29
                             1698.83  1714.40  1804.20  1815.60  1838.85
                             1849.78  1859.57  1908.26  1942.78  1965.28
                             1992.16  2044.65  2095.73  2190.39  2199.08
                             2209.99  2362.01  2427.88  4421.14  4528.21
                             4646.72  4649.13  5084.41  5096.24  5198.72

 Zero-point correction=                           0.173995 (Hartree/Particle)
 Thermal correction to Energy=                    0.191168
 Thermal correction to Enthalpy=                  0.192113
 Thermal correction to Gibbs Free Energy=         0.128587
 Sum of electronic and zero-point Energies=          -1869.449767
 Sum of electronic and thermal Energies=             -1869.432594
 Sum of electronic and thermal Enthalpies=           -1869.431650
 Sum of electronic and thermal Free Energies=        -1869.495175

                     E (Thermal)             CV                S
                      KCal/Mol        Cal/Mol-Kelvin    Cal/Mol-Kelvin
 Total                  119.960             65.884            133.700
 Electronic               0.000              0.000              0.000
 Translational            0.889              2.981             43.277
 Rotational               0.889              2.981             34.275
 Vibrational            118.183             59.922             56.148
 Vibration     1          0.594              1.983              5.656
 Vibration     2          0.595              1.977              4.784
 Vibration     3          0.599              1.965              4.006
 Vibration     4          0.603              1.953              3.575
 Vibration     5          0.607              1.940              3.238
 Vibration     6          0.611              1.927              3.009
 Vibration     7          0.621              1.895              2.587
 Vibration     8          0.623              1.886              2.496
 Vibration     9          0.638              1.838              2.119
 Vibration    10          0.645              1.818              2.000
 Vibration    11          0.649              1.804              1.926
 Vibration    12          0.670              1.740              1.638
 Vibration    13          0.681              1.707              1.521
 Vibration    14          0.696              1.662              1.384
 Vibration    15          0.703              1.644              1.333
 Vibration    16          0.709              1.626              1.286
 Vibration    17          0.731              1.564              1.142
 Vibration    18          0.774              1.448              0.926
 Vibration    19          0.783              1.426              0.891
 Vibration    20          0.812              1.354              0.787
 Vibration    21          0.823              1.325              0.749
 Vibration    22          0.846              1.273              0.684
 Vibration    23          0.850              1.263              0.673
 Vibration    24          0.866              1.225              0.630
 Vibration    25          0.875              1.206              0.610
 Vibration    26          0.880              1.194              0.598
 Vibration    27          0.888              1.177              0.581
 Vibration    28          0.907              1.137              0.541
 Vibration    29          0.939              1.069              0.481
 Vibration    30          0.953              1.043              0.458
 Vibration    31          0.956              1.035              0.453

                           ! Non-Optimized Parameters !
 Normal termination of Gaussian 16 at Fri Jul  1 09:31:30 2022.
