 Gaussian 16, Revision C.01,
 Gaussian 16:  ES64L-G16RevC.01  3-Jul-2019

 --------------------------------------------------
 #M062X/gen 6D INT(grid=ultrafine) OPT Freq=noraman
 --------------------------------------------------

 ---------
 A.31.freq
 ---------
 Symbolic Z-matrix:
 Charge = -1 Multiplicity = 1

 SCF Done:  E(RM062X) =  -1991.03183446     A.U. after   17 cycles
 SCF Done:  E(RM062X) =  -1991.03458403     A.U. after   15 cycles
 SCF Done:  E(RM062X) =  -1991.03537604     A.U. after   15 cycles
 SCF Done:  E(RM062X) =  -1991.03549607     A.U. after   15 cycles
 SCF Done:  E(RM062X) =  -1991.03549899     A.U. after   15 cycles
 SCF Done:  E(RM062X) =  -1991.03560030     A.U. after   13 cycles
 SCF Done:  E(RM062X) =  -1991.03562705     A.U. after   13 cycles
 SCF Done:  E(RM062X) =  -1991.03563044     A.U. after   13 cycles
 SCF Done:  E(RM062X) =  -1991.03563103     A.U. after   11 cycles
 SCF Done:  E(RM062X) =  -1991.03563144     A.U. after   12 cycles
 SCF Done:  E(RM062X) =  -1991.03563160     A.U. after   11 cycles
 SCF Done:  E(RM062X) =  -1991.03563169     A.U. after   11 cycles
 Optimization completed.
    -- Stationary point found.
 Normal termination of Gaussian 16 at Fri Jul  1 09:11:20 2022.

 ------------------------------------------------------------------
 #N Geom=AllCheck Guess=TCheck SCRF=Check GenChk RM062X/ChkBas Freq
 ------------------------------------------------------------------

 Structure from the checkpoint file:  "/jobfs/49768861.gadi-pbs/Gau-468940.chk"
 ---------
 A.31.freq
 ---------
 Charge = -1 Multiplicity = 1

                         Standard orientation:
 ---------------------------------------------------------------------
 Center     Atomic      Atomic             Coordinates (Angstroms)
 Number     Number       Type             X           Y           Z
 ---------------------------------------------------------------------
      1          6           0        1.217924   -0.109357    0.013638
      2          6           0        1.181213    1.288787    0.059724
      3         17           0        2.650602    2.226119    0.098094
      4          6           0       -0.011959    2.000001    0.066080
      5          1           0       -0.013872    3.084588    0.087916
      6          6           0       -1.237303    1.330945    0.023334
      7          6           0       -1.195121   -0.075560   -0.005671
      8         16           0       -2.713295   -0.943442    0.124219
      9          6           0        0.001392   -0.785908   -0.011106
     10          1           0        0.021069   -1.872683   -0.039827
     11         16           0        2.776140   -1.107300   -0.045247
     12          8           0        3.456239   -0.662159    1.188937
     13          8           0        2.226822   -2.472336   -0.046606
     14          7           0        3.495857   -0.781537   -1.385755
     15          1           0        4.066386    0.048563   -1.217332
     16          7           0       -2.401588    2.110677   -0.041190
     17          6           0       -3.500075    1.555267   -0.380454
     18          7           0       -3.670969    0.211431   -0.675885
     19          8           0       -2.764368   -2.148740   -0.683548
     20          8           0       -3.148892   -1.010273    1.511255
     21          1           0       -4.390590    2.168816   -0.508449
     22          1           0       -4.606685   -0.122422   -0.887207
 ---------------------------------------------------------------------

 SCF Done:  E(RM062X) =  -1991.03563169     A.U. after    2 cycles

 The electronic state is 1-A.
 Alpha  occ. eigenvalues -- -102.57532 -90.09655 -89.99155 -19.57359 -19.57102
 Alpha  occ. eigenvalues --  -19.47048 -19.46979 -14.75295 -14.69995 -14.57533
 Alpha  occ. eigenvalues --  -10.57949 -10.53446 -10.52915 -10.51125 -10.48380
 Alpha  occ. eigenvalues --  -10.48305 -10.47664  -9.72168  -8.40673  -8.29928
 Alpha  occ. eigenvalues --   -7.44576  -7.43919  -7.43880  -6.32946  -6.32793
 Alpha  occ. eigenvalues --   -6.32698  -6.22140  -6.22123  -6.22013  -1.17604
 Alpha  occ. eigenvalues --   -1.06514  -1.05665  -1.03247  -0.94887  -0.94782
 Alpha  occ. eigenvalues --   -0.90640  -0.85915  -0.81835  -0.78037  -0.77771
 Alpha  occ. eigenvalues --   -0.69259  -0.67454  -0.62179  -0.58414  -0.56560
 Alpha  occ. eigenvalues --   -0.55667  -0.53134  -0.49260  -0.48039  -0.46921
 Alpha  occ. eigenvalues --   -0.46012  -0.44442  -0.42599  -0.42328  -0.40810
 Alpha  occ. eigenvalues --   -0.38788  -0.37980  -0.37242  -0.35882  -0.35109
 Alpha  occ. eigenvalues --   -0.34027  -0.31873  -0.30812  -0.30497  -0.29185
 Alpha  occ. eigenvalues --   -0.28620  -0.27244  -0.26517  -0.23988  -0.22751
 Alpha  occ. eigenvalues --   -0.22081  -0.21766  -0.19775  -0.17739  -0.15126
 Alpha virt. eigenvalues --    0.05721   0.06735   0.08590   0.09938   0.10690
 Alpha virt. eigenvalues --    0.11418   0.12156   0.13375   0.13446   0.13947
 Alpha virt. eigenvalues --    0.14671   0.15542   0.16302   0.16416   0.16995

 Mulliken charges:
               1
     1  C   -2.071838
     2  C    1.304994
     3  Cl   0.190939
     4  C   -1.270772
     5  H    0.234364
     6  C    0.293082
     7  C   -0.150032
     8  S    1.647327
     9  C   -0.335377
    10  H    0.301732
    11  S    1.451522
    12  O   -0.519499
    13  O   -0.649257
    14  N   -0.697094
    15  H    0.351486
    16  N   -0.193618
    17  C    0.145647
    18  N   -0.735920
    19  O   -0.534177
    20  O   -0.428672
    21  H    0.200837
    22  H    0.464327
 Sum of Mulliken charges =  -1.00000

 Dipole moment (field-independent basis, Debye):
    X=            -11.5405    Y=              7.5598    Z=             -1.2799  Tot=             13.8553
 Quadrupole moment (field-independent basis, Debye-Ang):
   XX=           -154.5123   YY=           -145.1542   ZZ=           -137.2517
   XY=              9.1240   XZ=              9.0792   YZ=             -3.3821

  Exact polarizability:     245.976       0.214     172.203      -0.549       2.713     113.145
 Approx polarizability:     276.253       9.094     230.278       1.853       7.411     160.024

                      1                      2                      3
                      A                      A                      A
 Frequencies --     46.2057                52.5909                82.4597
 Red. masses --     11.9172                 8.8712                11.0206
 Frc consts  --      0.0150                 0.0145                 0.0442
 IR Inten    --      0.6842                 0.4040                 0.6223

                      4                      5                      6
                      A                      A                      A
 Frequencies --    109.5911               132.3589               170.1227
 Red. masses --     10.6398                10.2947                17.5966
 Frc consts  --      0.0753                 0.1063                 0.3001
 IR Inten    --      2.4586                 1.9426                 0.2194

                      7                      8                      9
                      A                      A                      A
 Frequencies --    188.8554               196.8017               242.3149
 Red. masses --     12.7585                 5.0647                10.4368
 Frc consts  --      0.2681                 0.1156                 0.3611
 IR Inten    --      0.6817                 5.6619                 3.2006

                     10                     11                     12
                      A                      A                      A
 Frequencies --    247.8804               280.1670               315.2792
 Red. masses --      9.0932                 4.1812                 5.6338
 Frc consts  --      0.3292                 0.1934                 0.3299
 IR Inten    --      2.6693                10.1490                 8.7216

                     13                     14                     15
                      A                      A                      A
 Frequencies --    321.0077               377.7095               418.2394
 Red. masses --      6.1610                10.2526                 3.4384
 Frc consts  --      0.3741                 0.8618                 0.3544
 IR Inten    --     11.8091                 8.7716                19.9104

                     16                     17                     18
                      A                      A                      A
 Frequencies --    433.1292               451.6304               471.5439
 Red. masses --      4.0829                 5.0929                 2.2145
 Frc consts  --      0.4513                 0.6120                 0.2901
 IR Inten    --      8.1937                58.3263                21.0992

                     19                     20                     21
                      A                      A                      A
 Frequencies --    483.3905               514.4165               524.6570
 Red. masses --      5.8847                 6.6835                 2.0442
 Frc consts  --      0.8102                 1.0420                 0.3315
 IR Inten    --     43.1362                24.7333                97.5219

                     22                     23                     24
                      A                      A                      A
 Frequencies --    534.1718               540.8280               548.1431
 Red. masses --      3.5762                 7.2926                 5.8639
 Frc consts  --      0.6012                 1.2568                 1.0381
 IR Inten    --     26.5582                51.6612                46.1397

                     25                     26                     27
                      A                      A                      A
 Frequencies --    573.7493               597.4396               652.7134
 Red. masses --      5.5634                13.9886                 9.6679
 Frc consts  --      1.0790                 2.9418                 2.4268
 IR Inten    --      1.3031               105.0351                57.3683

                     28                     29                     30
                      A                      A                      A
 Frequencies --    690.1536               714.0555               750.3506
 Red. masses --      8.8831                 6.9799                 4.3929
 Frc consts  --      2.4929                 2.0968                 1.4572
 IR Inten    --      3.6112                19.4848                 3.5916

                     31                     32                     33
                      A                      A                      A
 Frequencies --    792.3468               900.7235               910.0014
 Red. masses --      6.5905                 4.8495                 1.4993
 Frc consts  --      2.4378                 2.3181                 0.7315
 IR Inten    --     54.5671                18.7716                15.2190

                     34                     35                     36
                      A                      A                      A
 Frequencies --    933.7801               946.0094               957.8427
 Red. masses --      5.7497                 1.6616                 1.3739
 Frc consts  --      2.9538                 0.8761                 0.7427
 IR Inten    --     26.1301                 1.4454                14.6901

                     37                     38                     39
                      A                      A                      A
 Frequencies --    979.7758              1097.2897              1108.4811
 Red. masses --     12.5878                 4.9175                 2.4227
 Frc consts  --      7.1196                 3.4885                 1.7539
 IR Inten    --    324.4265                61.4052                51.5081

                     40                     41                     42
                      A                      A                      A
 Frequencies --   1125.9617              1135.9641              1171.1624
 Red. masses --      1.7740                 2.1750                 4.2647
 Frc consts  --      1.3251                 1.6537                 3.4464
 IR Inten    --    201.8677                 3.1418               156.5775

                     43                     44                     45
                      A                      A                      A
 Frequencies --   1193.5887              1239.6479              1260.3710
 Red. masses --     10.6817                 2.4262                 1.5648
 Frc consts  --      8.9660                 2.1967                 1.4645
 IR Inten    --    186.8111                34.2536                64.7399

                     46                     47                     48
                      A                      A                      A
 Frequencies --   1286.9354              1329.1748              1355.7442
 Red. masses --      4.3482                10.2185                18.0066
 Frc consts  --      4.2430                10.6366                19.5002
 IR Inten    --    155.3295                38.7383               206.3125

                     49                     50                     51
                      A                      A                      A
 Frequencies --   1398.8631              1421.6565              1434.2950
 Red. masses --      3.4029                 1.7328                 1.7328
 Frc consts  --      3.9233                 2.0634                 2.1002
 IR Inten    --     19.6209               233.3784                 9.2478

                     52                     53                     54
                      A                      A                      A
 Frequencies --   1495.8958              1609.2875              1652.5224
 Red. masses --      3.2897                10.1552                 7.6060
 Frc consts  --      4.3372                15.4955                12.2378
 IR Inten    --     41.0076                58.8057                47.1612

                     55                     56                     57
                      A                      A                      A
 Frequencies --   1734.0909              3199.5646              3235.9679
 Red. masses --      8.5400                 1.0918                 1.0907
 Frc consts  --     15.1305                 6.5852                 6.7294
 IR Inten    --    201.8713                20.3373                15.4945

                     58                     59                     60
                      A                      A                      A
 Frequencies --   3250.9489              3526.8904              3608.4881
 Red. masses --      1.0921                 1.0729                 1.0777
 Frc consts  --      6.8004                 7.8634                 8.2676
 IR Inten    --      1.2580                 8.5695                91.4917

 - Thermochemistry -
 -------------------
 Temperature   298.150 Kelvin.  Pressure   1.00000 Atm.
 Atom     1 has atomic number  6 and mass  12.00000

 Molecular mass:   293.94100 amu.
 Principal axes and moments of inertia in atomic units:
                           1         2         3
     Eigenvalues --  2700.653717495.727849444.82357
           X            0.99994  -0.01080   0.00063
           Y            0.01080   0.99994  -0.00172
           Z           -0.00061   0.00173   1.00000
 This molecule is an asymmetric top.
 Rotational symmetry number  1.
 Warning -- assumption of classical behavior for rotation
           may cause significant error
 Rotational temperatures (Kelvin)      0.03207     0.01156     0.00917
 Rotational constants (GHZ):           0.66826     0.24077     0.19108
 Zero-point vibrational energy     352630.6 (Joules/Mol)
                                   84.28073 (Kcal/Mol)
 Warning -- explicit consideration of  26 degrees of freedom as
           vibrations may cause significant error
 Vibrational temperatures:     66.48    75.67   118.64   157.68   190.43
          (Kelvin)            244.77   271.72   283.15   348.64   356.64
                              403.10   453.62   461.86   543.44   601.75
                              623.18   649.80   678.45   695.49   740.13
                              754.86   768.55   778.13   788.66   825.50
                              859.58   939.11   992.98  1027.37  1079.59
                             1140.01  1295.94  1309.29  1343.50  1361.10
                             1378.12  1409.68  1578.76  1594.86  1620.01
                             1634.40  1685.04  1717.31  1783.58  1813.39
                             1851.61  1912.39  1950.61  2012.65  2045.45
                             2063.63  2152.26  2315.41  2377.61  2494.97
                             4603.46  4655.84  4677.39  5074.41  5191.81

 Zero-point correction=                           0.134310 (Hartree/Particle)
 Thermal correction to Energy=                    0.148981
 Thermal correction to Enthalpy=                  0.149925
 Thermal correction to Gibbs Free Energy=         0.091775
 Sum of electronic and zero-point Energies=          -1990.901322
 Sum of electronic and thermal Energies=             -1990.886651
 Sum of electronic and thermal Enthalpies=           -1990.885707
 Sum of electronic and thermal Free Energies=        -1990.943856

                     E (Thermal)             CV                S
                      KCal/Mol        Cal/Mol-Kelvin    Cal/Mol-Kelvin
 Total                   93.487             55.609            122.386
 Electronic               0.000              0.000              0.000
 Translational            0.889              2.981             42.932
 Rotational               0.889              2.981             33.613
 Vibrational             91.709             49.648             45.841
 Vibration     1          0.595              1.979              4.974
 Vibration     2          0.596              1.977              4.718
 Vibration     3          0.600              1.961              3.831
 Vibration     4          0.606              1.942              3.276
 Vibration     5          0.612              1.921              2.911
 Vibration     6          0.625              1.879              2.434
 Vibration     7          0.633              1.855              2.239
 Vibration     8          0.636              1.844              2.163
 Vibration     9          0.659              1.775              1.786
 Vibration    10          0.662              1.766              1.746
 Vibration    11          0.680              1.710              1.533
 Vibration    12          0.703              1.644              1.334
 Vibration    13          0.706              1.633              1.305
 Vibration    14          0.748              1.518              1.048
 Vibration    15          0.781              1.431              0.898
 Vibration    16          0.794              1.398              0.848
 Vibration    17          0.810              1.357              0.791
 Vibration    18          0.828              1.313              0.733
 Vibration    19          0.840              1.287              0.701
 Vibration    20          0.869              1.218              0.623
 Vibration    21          0.880              1.195              0.599
 Vibration    22          0.889              1.174              0.578
 Vibration    23          0.896              1.160              0.564
 Vibration    24          0.903              1.144              0.548
 Vibration    25          0.930              1.088              0.497
 Vibration    26          0.955              1.037              0.454

 Optimization completed.
    -- Stationary point found.
 Normal termination of Gaussian 16 at Fri Jul  1 09:18:25 2022.
