 Gaussian 16, Revision C.01,
 Gaussian 16:  ES64L-G16RevC.01  3-Jul-2019

 --------------------------------------------------
 #M062X/gen 6D INT(grid=ultrafine) OPT Freq=noraman
 --------------------------------------------------

 ---------
 A.32.freq
 ---------
 Symbolic Z-matrix:
 Charge = -1 Multiplicity = 1

 SCF Done:  E(RM062X) =  -1992.22522296     A.U. after   18 cycles
 SCF Done:  E(RM062X) =  -1992.22917826     A.U. after   16 cycles
 SCF Done:  E(RM062X) =  -1992.23019162     A.U. after   15 cycles
 SCF Done:  E(RM062X) =  -1992.23041259     A.U. after   15 cycles
 SCF Done:  E(RM062X) =  -1992.23043862     A.U. after   15 cycles
 SCF Done:  E(RM062X) =  -1992.23060656     A.U. after   15 cycles
 SCF Done:  E(RM062X) =  -1992.23067754     A.U. after   15 cycles
 SCF Done:  E(RM062X) =  -1992.23069071     A.U. after   13 cycles
 SCF Done:  E(RM062X) =  -1992.23069569     A.U. after   13 cycles
 SCF Done:  E(RM062X) =  -1992.23069877     A.U. after   13 cycles
 SCF Done:  E(RM062X) =  -1992.23069937     A.U. after   11 cycles
 SCF Done:  E(RM062X) =  -1992.23069961     A.U. after   12 cycles
 Optimization completed.
    -- Stationary point found.
 Normal termination of Gaussian 16 at Fri Jul  1 09:12:54 2022.

 ------------------------------------------------------------------
 #N Geom=AllCheck Guess=TCheck SCRF=Check GenChk RM062X/ChkBas Freq
 ------------------------------------------------------------------

 Structure from the checkpoint file:  "/jobfs/49776266.gadi-pbs/Gau-3972197.chk"
 ---------
 A.32.freq
 ---------
 Charge = -1 Multiplicity = 1

                         Standard orientation:
 ---------------------------------------------------------------------
 Center     Atomic      Atomic             Coordinates (Angstroms)
 Number     Number       Type             X           Y           Z
 ---------------------------------------------------------------------
      1          6           0        1.267290   -0.107951   -0.001859
      2          6           0        1.219815    1.288055   -0.007042
      3         17           0        2.680351    2.242693    0.021144
      4          6           0        0.024475    1.993917   -0.046357
      5          1           0        0.042354    3.079954   -0.077578
      6          6           0       -1.200233    1.320015   -0.062635
      7          6           0       -1.157559   -0.083183   -0.048865
      8         16           0       -2.658561   -1.010951    0.027267
      9          6           0        0.051169   -0.779245   -0.027647
     10          1           0        0.071819   -1.866820   -0.029585
     11         16           0        2.829746   -1.096206    0.021314
     12          8           0        3.466776   -0.607218    1.264107
     13          8           0        2.287659   -2.464506    0.046848
     14          7           0        3.604700   -0.815428   -1.299645
     15          1           0        4.168470    0.019666   -1.133558
     16          7           0       -2.387394    2.055516   -0.168213
     17          6           0       -3.645560    1.398600    0.125806
     18          7           0       -3.680304    0.159926   -0.648994
     19          8           0       -2.659705   -2.146906   -0.878795
     20          8           0       -3.037092   -1.231844    1.423141
     21          1           0       -4.460175    2.036819   -0.224439
     22          1           0       -4.615058   -0.242761   -0.713754
     23          1           0       -2.314473    2.985411    0.225903
     24          1           0       -3.774377    1.198928    1.203405
 ---------------------------------------------------------------------

 SCF Done:  E(RM062X) =  -1992.23069961     A.U. after    2 cycles

 The electronic state is 1-A.
 Alpha  occ. eigenvalues -- -102.57240 -90.07830 -89.98400 -19.55971 -19.55689
 Alpha  occ. eigenvalues --  -19.46285 -19.46211 -14.72566 -14.71864 -14.56719
 Alpha  occ. eigenvalues --  -10.56564 -10.53598 -10.53050 -10.49979 -10.48032
 Alpha  occ. eigenvalues --  -10.47494 -10.46330  -9.71878  -8.38927  -8.29170
 Alpha  occ. eigenvalues --   -7.44283  -7.43629  -7.43593  -6.31150  -6.31060
 Alpha  occ. eigenvalues --   -6.30972  -6.21383  -6.21362  -6.21256  -1.15989
 Alpha  occ. eigenvalues --   -1.05692  -1.04153  -1.01653  -0.94383  -0.94078
 Alpha  occ. eigenvalues --   -0.90117  -0.85217  -0.81016  -0.77350  -0.76869
 Alpha  occ. eigenvalues --   -0.70231  -0.66698  -0.63190  -0.57888  -0.55334
 Alpha  occ. eigenvalues --   -0.54920  -0.51974  -0.50585  -0.49265  -0.47109
 Alpha  occ. eigenvalues --   -0.45907  -0.44258  -0.43629  -0.42786  -0.42298
 Alpha  occ. eigenvalues --   -0.40098  -0.39188  -0.37351  -0.36365  -0.34869
 Alpha  occ. eigenvalues --   -0.34208  -0.33165  -0.31600  -0.31140  -0.29273
 Alpha  occ. eigenvalues --   -0.28723  -0.27693  -0.26671  -0.25821  -0.23209
 Alpha  occ. eigenvalues --   -0.21956  -0.21558  -0.20560  -0.18375  -0.16988
 Alpha  occ. eigenvalues --   -0.14231
 Alpha virt. eigenvalues --    0.06438   0.08130   0.08773   0.10043   0.10712
 Alpha virt. eigenvalues --    0.11216   0.12121   0.12929   0.14119   0.14665
 Alpha virt. eigenvalues --    0.14839   0.16183   0.16676   0.17118   0.17486

 Mulliken charges:
               1
     1  C   -2.367307
     2  C    1.271960
     3  Cl   0.182527
     4  C   -1.351982
     5  H    0.204419
     6  C    0.816465
     7  C   -0.036227
     8  S    1.698209
     9  C   -0.456400
    10  H    0.299184
    11  S    1.464523
    12  O   -0.529649
    13  O   -0.646831
    14  N   -0.690329
    15  H    0.348357
    16  N   -0.536607
    17  C   -0.231555
    18  N   -0.761203
    19  O   -0.524078
    20  O   -0.459181
    21  H    0.205176
    22  H    0.456995
    23  H    0.402371
    24  H    0.241163
 Sum of Mulliken charges =  -1.00000

 Dipole moment (field-independent basis, Debye):
    X=            -12.7240    Y=             10.6621    Z=              0.4768  Tot=             16.6075
 Quadrupole moment (field-independent basis, Debye-Ang):
   XX=           -160.0356   YY=           -137.7214   ZZ=           -141.1967
   XY=              2.0160   XZ=              0.5075   YZ=              0.7282

  Exact polarizability:     231.004      -2.164     175.585      -4.726       2.138     118.025
 Approx polarizability:     249.190       3.981     230.839      -3.635       3.727     165.833

                      1                      2                      3
                      A                      A                      A
 Frequencies --     39.6105                52.1805                80.7514
 Red. masses --      8.7432                 8.7854                 7.4127
 Frc consts  --      0.0081                 0.0141                 0.0285
 IR Inten    --      1.0395                 0.0165                 1.0939

                      4                      5                      6
                      A                      A                      A
 Frequencies --    106.3238               125.4897               171.9057
 Red. masses --      7.8732                 9.9065                17.2846
 Frc consts  --      0.0524                 0.0919                 0.3009
 IR Inten    --      3.2070                 0.7039                 0.0177

                      7                      8                      9
                      A                      A                      A
 Frequencies --    186.7127               214.4574               240.0807
 Red. masses --     12.4905                 4.5925                 9.9647
 Frc consts  --      0.2566                 0.1244                 0.3384
 IR Inten    --      1.0654                 4.4116                 1.8722

                     10                     11                     12
                      A                      A                      A
 Frequencies --    246.8003               256.4578               306.3441
 Red. masses --      9.0040                 3.7657                 4.7272
 Frc consts  --      0.3231                 0.1459                 0.2614
 IR Inten    --      1.3736                 5.7146                 8.9456

                     13                     14                     15
                      A                      A                      A
 Frequencies --    318.9473               333.2080               389.1944
 Red. masses --      5.5691                 5.2739                 4.1432
 Frc consts  --      0.3338                 0.3450                 0.3698
 IR Inten    --      4.9594                 0.3470                 9.0485

                     16                     17                     18
                      A                      A                      A
 Frequencies --    413.8116               427.6520               450.1503
 Red. masses --      3.3853                 3.7431                 2.2910
 Frc consts  --      0.3415                 0.4033                 0.2735
 IR Inten    --     10.0868                56.5378                83.2584

                     19                     20                     21
                      A                      A                      A
 Frequencies --    483.5417               492.4721               511.4967
 Red. masses --      4.9452                 2.5036                 4.6300
 Frc consts  --      0.6812                 0.3578                 0.7137
 IR Inten    --     57.4324               117.7184                32.6889

                     22                     23                     24
                      A                      A                      A
 Frequencies --    521.7771               527.6161               539.7715
 Red. masses --      5.5690                 1.9508                 7.9915
 Frc consts  --      0.8933                 0.3200                 1.3718
 IR Inten    --     19.9905                76.9691                64.5188

                     25                     26                     27
                      A                      A                      A
 Frequencies --    550.9876               595.2961               626.8413
 Red. masses --      5.8409                 9.2721                 2.8341
 Frc consts  --      1.0447                 1.9360                 0.6561
 IR Inten    --     26.2182                66.1073               116.7925

                     28                     29                     30
                      A                      A                      A
 Frequencies --    656.9576               668.8315               716.4957
 Red. masses --      8.3209                 9.6447                 6.3742
 Frc consts  --      2.1159                 2.5420                 1.9280
 IR Inten    --     52.2709                 1.8867                19.5941

                     31                     32                     33
                      A                      A                      A
 Frequencies --    727.0212               811.3434               862.5139
 Red. masses --      4.1233                 5.0521                 1.5593
 Frc consts  --      1.2841                 1.9594                 0.6835
 IR Inten    --      9.7709                80.4131                33.6081

                     34                     35                     36
                      A                      A                      A
 Frequencies --    868.2809               919.9796               959.0802
 Red. masses --      2.5727                 6.1303                 1.3837
 Frc consts  --      1.1428                 3.0569                 0.7499
 IR Inten    --     23.7958                37.4434                11.8666

                     37                     38                     39
                      A                      A                      A
 Frequencies --    974.9348              1038.5589              1091.0211
 Red. masses --      9.9532                 3.3446                 3.9335
 Frc consts  --      5.5740                 2.1255                 2.7586
 IR Inten    --    265.5611                79.6001                49.8403

                     40                     41                     42
                      A                      A                      A
 Frequencies --   1122.6032              1127.3131              1146.4859
 Red. masses --      2.0134                 1.8417                 2.8826
 Frc consts  --      1.4950                 1.3790                 2.2324
 IR Inten    --     17.7465               216.8335                13.5894

                     43                     44                     45
                      A                      A                      A
 Frequencies --   1155.0804              1166.7121              1177.6081
 Red. masses --      2.3316                 3.6485                 6.7075
 Frc consts  --      1.8328                 2.9261                 5.4804
 IR Inten    --      3.5909               143.6888               275.0982

                     46                     47                     48
                      A                      A                      A
 Frequencies --   1254.4901              1277.9571              1285.4573
 Red. masses --      1.5841                 3.5274                 2.0069
 Frc consts  --      1.4688                 3.3942                 1.9538
 IR Inten    --     29.2715               164.1270                37.6444

                     49                     50                     51
                      A                      A                      A
 Frequencies --   1294.2392              1328.9718              1343.5002
 Red. masses --      1.5562                 2.2247                 8.9014
 Frc consts  --      1.5358                 2.3150                 9.4664
 IR Inten    --     22.8252               106.3896               198.2129

                     52                     53                     54
                      A                      A                      A
 Frequencies --   1365.8625              1396.3088              1449.3413
 Red. masses --      2.1121                 3.3019                 1.4880
 Frc consts  --      2.3216                 3.7929                 1.8416
 IR Inten    --     40.6339                 0.6605                83.1842

                     55                     56                     57
                      A                      A                      A
 Frequencies --   1502.5700              1536.2713              1544.9338
 Red. masses --      2.3075                 1.7623                 1.3201
 Frc consts  --      3.0694                 2.4506                 1.8564
 IR Inten    --     22.9784               104.3141                32.9018

                     58                     59                     60
                      A                      A                      A
 Frequencies --   1637.4831              1670.2464              3009.0075
 Red. masses --      6.5577                 7.1745                 1.0712
 Frc consts  --     10.3598                11.7924                 5.7143
 IR Inten    --     63.0082               160.2148                69.5492

                     61                     62                     63
                      A                      A                      A
 Frequencies --   3139.1961              3219.3569              3232.0519
 Red. masses --      1.0931                 1.0911                 1.0905
 Frc consts  --      6.3464                 6.6627                 6.7118
 IR Inten    --     32.2327                 7.5696                16.1907

                     64                     65                     66
                      A                      A                      A
 Frequencies --   3525.8713              3552.7956              3622.5252
 Red. masses --      1.0729                 1.0753                 1.0761
 Frc consts  --      7.8589                 7.9970                 8.3198
 IR Inten    --      7.1423                34.5174                18.3868

 - Thermochemistry -
 -------------------
 Temperature   298.150 Kelvin.  Pressure   1.00000 Atm.
 Atom     1 has atomic number  6 and mass  12.00000

 Molecular mass:   295.95665 amu.
 Principal axes and moments of inertia in atomic units:
                           1         2         3
     Eigenvalues --  2741.029967620.493839618.75142
           X            0.99983  -0.01843  -0.00287
           Y            0.01844   0.99983   0.00290
           Z            0.00282  -0.00295   0.99999
 This molecule is an asymmetric top.
 Rotational symmetry number  1.
 Warning -- assumption of classical behavior for rotation
           may cause significant error
 Rotational temperatures (Kelvin)      0.03160     0.01137     0.00900
 Rotational constants (GHZ):           0.65842     0.23683     0.18763
 Zero-point vibrational energy     416235.5 (Joules/Mol)
                                   99.48267 (Kcal/Mol)
 Warning -- explicit consideration of  26 degrees of freedom as
           vibrations may cause significant error
 Vibrational temperatures:     56.99    75.08   116.18   152.98   180.55
          (Kelvin)            247.33   268.64   308.56   345.42   355.09
                              368.99   440.76   458.89   479.41   559.96
                              595.38   615.30   647.67   695.71   708.56
                              735.93   750.72   759.12   776.61   792.75
                              856.50   901.88   945.22   962.30  1030.88
                             1046.02  1167.34  1240.97  1249.26  1323.65
                             1379.90  1402.71  1494.25  1569.74  1615.18
                             1621.95  1649.54  1661.90  1678.64  1694.32
                             1804.93  1838.70  1849.49  1862.12  1912.09
                             1933.00  1965.17  2008.98  2085.28  2161.86
                             2210.35  2222.82  2355.97  2403.11  4329.29
                             4516.60  4631.94  4650.20  5072.94  5111.68
                             5212.01

 Zero-point correction=                           0.158536 (Hartree/Particle)
 Thermal correction to Energy=                    0.173661
 Thermal correction to Enthalpy=                  0.174605
 Thermal correction to Gibbs Free Energy=         0.115540
 Sum of electronic and zero-point Energies=          -1992.072164
 Sum of electronic and thermal Energies=             -1992.057038
 Sum of electronic and thermal Enthalpies=           -1992.056094
 Sum of electronic and thermal Free Energies=        -1992.115159

                     E (Thermal)             CV                S
                      KCal/Mol        Cal/Mol-Kelvin    Cal/Mol-Kelvin
 Total                  108.974             57.694            124.313
 Electronic               0.000              0.000              0.000
 Translational            0.889              2.981             42.952
 Rotational               0.889              2.981             33.663
 Vibrational            107.197             51.732             47.699
 Vibration     1          0.594              1.981              5.278
 Vibration     2          0.596              1.977              4.733
 Vibration     3          0.600              1.962              3.873
 Vibration     4          0.605              1.944              3.335
 Vibration     5          0.610              1.928              3.014
 Vibration     6          0.626              1.877              2.415
 Vibration     7          0.632              1.858              2.260
 Vibration     8          0.644              1.819              2.005
 Vibration     9          0.657              1.779              1.802
 Vibration    10          0.661              1.768              1.753
 Vibration    11          0.666              1.752              1.686
 Vibration    12          0.697              1.662              1.382
 Vibration    13          0.705              1.637              1.315
 Vibration    14          0.715              1.609              1.244
 Vibration    15          0.757              1.493              1.003
 Vibration    16          0.777              1.440              0.913
 Vibration    17          0.789              1.410              0.866
 Vibration    18          0.809              1.361              0.795
 Vibration    19          0.840              1.287              0.701
 Vibration    20          0.848              1.267              0.677
 Vibration    21          0.867              1.225              0.630
 Vibration    22          0.877              1.202              0.606
 Vibration    23          0.883              1.189              0.593
 Vibration    24          0.895              1.162              0.566
 Vibration    25          0.906              1.138              0.542
 Vibration    26          0.953              1.042              0.458

 Optimization completed.
    -- Stationary point found.
 Normal termination of Gaussian 16 at Fri Jul  1 09:21:09 2022.
