 Gaussian 16, Revision C.01,
 Gaussian 16:  ES64L-G16RevC.01  3-Jul-2019

 --------------------------------------------------
 #M062X/gen 6D INT(grid=ultrafine) OPT Freq=noraman
 --------------------------------------------------

 ---------
 A.33.freq
 ---------
 Symbolic Z-matrix:
 Charge = -1 Multiplicity = 1

 SCF Done:  E(RM062X) =  -1704.70381429     A.U. after   17 cycles
 SCF Done:  E(RM062X) =  -1704.70772291     A.U. after   15 cycles
 SCF Done:  E(RM062X) =  -1704.70876169     A.U. after   16 cycles
 SCF Done:  E(RM062X) =  -1704.70842376     A.U. after   17 cycles
 SCF Done:  E(RM062X) =  -1704.70855110     A.U. after   16 cycles
 SCF Done:  E(RM062X) =  -1704.70899076     A.U. after   13 cycles
 SCF Done:  E(RM062X) =  -1704.70922974     A.U. after   15 cycles
 SCF Done:  E(RM062X) =  -1704.70930008     A.U. after   14 cycles
 SCF Done:  E(RM062X) =  -1704.70931899     A.U. after   13 cycles
 SCF Done:  E(RM062X) =  -1704.70933242     A.U. after   13 cycles
 SCF Done:  E(RM062X) =  -1704.70933712     A.U. after   13 cycles
 SCF Done:  E(RM062X) =  -1704.70933863     A.U. after   12 cycles
 SCF Done:  E(RM062X) =  -1704.70933923     A.U. after   12 cycles
 SCF Done:  E(RM062X) =  -1704.70933954     A.U. after   12 cycles
 SCF Done:  E(RM062X) =  -1704.70933968     A.U. after   10 cycles
 Optimization completed.
    -- Stationary point found.
 Normal termination of Gaussian 16 at Fri Jul  1 14:25:42 2022.

 ------------------------------------------------------------------
 #N Geom=AllCheck Guess=TCheck SCRF=Check GenChk RM062X/ChkBas Freq
 ------------------------------------------------------------------

 Structure from the checkpoint file:  "/jobfs/49913702.gadi-pbs/Gau-767918.chk"
 ---------
 A.33.freq
 ---------
 Charge = -1 Multiplicity = 1

                         Standard orientation:
 ---------------------------------------------------------------------
 Center     Atomic      Atomic             Coordinates (Angstroms)
 Number     Number       Type             X           Y           Z
 ---------------------------------------------------------------------
      1          6           0       -2.416557    0.335419    0.011321
      2          6           0       -1.706775   -0.860888   -0.189736
      3          6           0       -2.371847   -2.223677   -0.236070
      4          6           0       -0.326253   -0.852226   -0.392540
      5          1           0        0.205185   -1.785294   -0.551556
      6          6           0        0.384635    0.345451   -0.385748
      7          6           0       -0.312521    1.545990   -0.189815
      8          6           0        0.427245    2.834657   -0.235146
      9          6           0       -1.693556    1.526165    0.001660
     10         16           0       -4.231174    0.469639    0.358896
     11          8           0       -4.469491    1.893303    0.070749
     12          8           0       -4.798048   -0.506475   -0.597217
     13          7           0       -4.452326    0.162135    1.870840
     14          1           0       -4.535324   -0.851878    1.951995
     15          7           0        1.772515    0.371505   -0.617179
     16          6           0        2.465476    1.463255    0.040668
     17          7           0        1.800409    2.692989   -0.344984
     18          1           0        2.212456   -0.522887   -0.417983
     19          9           0       -1.444614   -3.213964   -0.087361
     20          9           0       -2.969480   -2.471822   -1.406163
     21          9           0       -3.257882   -2.421656    0.744588
     22          1           0        2.306685    3.561191   -0.210296
     23          6           0        3.929749    1.512731   -0.404865
     24          6           0        4.667862    0.242979   -0.061845
     25          6           0        5.145547    0.023617    1.234962
     26          1           0        5.017433    0.798276    1.988506
     27          6           0        5.779711   -1.170766    1.569609
     28          1           0        6.142874   -1.324402    2.581821
     29          6           0        5.945536   -2.167432    0.608124
     30          1           0        6.437794   -3.100050    0.868025
     31          6           0        5.473584   -1.960865   -0.686780
     32          1           0        5.595725   -2.732712   -1.441371
     33          6           0        4.839293   -0.763681   -1.017630
     34          1           0        4.464887   -0.605511   -2.026519
     35          1           0        2.428054    1.336435    1.142454
     36          1           0        4.408977    2.368818    0.087100
     37          1           0        3.939248    1.689051   -1.485402
     38          8           0       -0.092145    3.936926   -0.221133
     39          1           0       -2.230918    2.460924    0.134381
 ---------------------------------------------------------------------

 SCF Done:  E(RM062X) =  -1704.70933968     A.U. after    2 cycles

 The electronic state is 1-A.
 Alpha  occ. eigenvalues --  -89.97885 -25.19304 -25.18826 -25.18432 -19.53493
 Alpha  occ. eigenvalues --  -19.45760 -19.45758 -14.71268 -14.70911 -14.56218
 Alpha  occ. eigenvalues --  -10.70395 -10.57775 -10.56805 -10.52224 -10.51797
 Alpha  occ. eigenvalues --  -10.51649 -10.51588 -10.51481 -10.51430 -10.51280
 Alpha  occ. eigenvalues --  -10.50968 -10.48963 -10.47466 -10.47384 -10.46068
 Alpha  occ. eigenvalues --  -10.45893  -8.28660  -6.20876  -6.20849  -6.20744
 Alpha  occ. eigenvalues --   -1.35603  -1.26325  -1.25982  -1.08525  -1.05229
 Alpha  occ. eigenvalues --   -1.01448  -0.93653  -0.93323  -0.92524  -0.87781
 Alpha  occ. eigenvalues --   -0.84118  -0.80542  -0.80366  -0.79777  -0.77152
 Alpha  occ. eigenvalues --   -0.73954  -0.71390  -0.66956  -0.65285  -0.65047
 Alpha  occ. eigenvalues --   -0.61895  -0.61808  -0.58650  -0.57883  -0.57752
 Alpha  occ. eigenvalues --   -0.56059  -0.54848  -0.53776  -0.52321  -0.51345
 Alpha  occ. eigenvalues --   -0.48758  -0.48399  -0.47327  -0.46492  -0.46140
 Alpha  occ. eigenvalues --   -0.45814  -0.44778  -0.43958  -0.43257  -0.43024
 Alpha  occ. eigenvalues --   -0.42508  -0.41868  -0.41306  -0.41025  -0.40208
 Alpha  occ. eigenvalues --   -0.39777  -0.39647  -0.38909  -0.38644  -0.38302
 Alpha  occ. eigenvalues --   -0.36502  -0.35872  -0.35701  -0.35546  -0.34975
 Alpha  occ. eigenvalues --   -0.31910  -0.29231  -0.26747  -0.26185  -0.25931
 Alpha  occ. eigenvalues --   -0.25604  -0.24392  -0.22968  -0.22362  -0.21387
 Alpha  occ. eigenvalues --   -0.20188  -0.18247  -0.16591  -0.13595
 Alpha virt. eigenvalues --    0.05394   0.05896   0.06084   0.06923   0.07211
 Alpha virt. eigenvalues --    0.07618   0.08562   0.09067   0.09469   0.09916
 Alpha virt. eigenvalues --    0.11278   0.11452   0.12150   0.12426   0.12889

 Mulliken charges:
               1
     1  C   -1.654805
     2  C    0.232128
     3  C    1.671961
     4  C   -1.416516
     5  H    0.214691
     6  C   -0.218939
     7  C    1.099992
     8  C    1.223907
     9  C   -0.791441
    10  S    1.493825
    11  O   -0.613359
    12  O   -0.597524
    13  N   -0.803153
    14  H    0.356315
    15  N   -0.430448
    16  C   -0.525075
    17  N   -0.551431
    18  H    0.409890
    19  F   -0.361506
    20  F   -0.233691
    21  F   -0.298872
    22  H    0.430200
    23  C   -0.416872
    24  C    0.023268
    25  C    0.047315
    26  H    0.204290
    27  C   -0.242284
    28  H    0.204682
    29  C   -0.145758
    30  H    0.202152
    31  C   -0.262796
    32  H    0.206433
    33  C   -0.164094
    34  H    0.221090
    35  H    0.215775
    36  H    0.221768
    37  H    0.255359
    38  O   -0.508380
    39  H    0.301902
 Sum of Mulliken charges =  -1.00000

 Dipole moment (field-independent basis, Debye):
    X=             23.1946    Y=             -4.7052    Z=             -0.4291  Tot=             23.6710
 Quadrupole moment (field-independent basis, Debye-Ang):
   XX=           -250.4397   YY=           -184.4960   ZZ=           -168.1214
   XY=             12.5657   XZ=             10.4543   YZ=             -0.7996

  Exact polarizability:     301.395     -16.155     250.135      -3.638       3.157     184.835
 Approx polarizability:     306.645     -20.432     329.642      -2.346       9.765     260.230

                      1                      2                      3
                      A                      A                      A
 Frequencies --     18.7977                29.1159                43.8889
 Red. masses --      8.9517                 5.1605                 4.6633
 Frc consts  --      0.0019                 0.0026                 0.0053
 IR Inten    --      1.9254                 0.2901                 0.3005

                      4                      5                      6
                      A                      A                      A
 Frequencies --     49.8739                58.3739                81.5743
 Red. masses --      6.8434                 8.2494                 6.8413
 Frc consts  --      0.0100                 0.0166                 0.0268
 IR Inten    --      0.3645                 0.4665                 0.6789

                      7                      8                      9
                      A                      A                      A
 Frequencies --     94.8605               114.7705               129.5223
 Red. masses --     11.4811                 8.7099                 6.2747
 Frc consts  --      0.0609                 0.0676                 0.0620
 IR Inten    --      0.1491                 0.7935                 1.0271

                     10                     11                     12
                      A                      A                      A
 Frequencies --    143.6768               158.8662               181.6827
 Red. masses --      6.2712                12.2037                 6.8748
 Frc consts  --      0.0763                 0.1815                 0.1337
 IR Inten    --      1.2166                 0.8247                 0.5699

                     13                     14                     15
                      A                      A                      A
 Frequencies --    187.6505               214.0898               236.0761
 Red. masses --      7.3287                 9.3820                 6.8581
 Frc consts  --      0.1520                 0.2534                 0.2252
 IR Inten    --      1.0681                 0.6161                 1.2379

                     16                     17                     18
                      A                      A                      A
 Frequencies --    253.1410               263.1649               290.8959
 Red. masses --      7.1331                10.2147                 6.6930
 Frc consts  --      0.2693                 0.4168                 0.3337
 IR Inten    --      0.9053                 1.7099                15.1347

                     19                     20                     21
                      A                      A                      A
 Frequencies --    320.4574               325.5714               358.3482
 Red. masses --      7.5836                 6.2853                 2.3456
 Frc consts  --      0.4588                 0.3925                 0.1775
 IR Inten    --      4.9983                 1.3241                 0.9903

                     22                     23                     24
                      A                      A                      A
 Frequencies --    394.5696               416.3228               416.8540
 Red. masses --      4.2552                 2.9498                 3.0909
 Frc consts  --      0.3903                 0.3012                 0.3164
 IR Inten    --     15.0479                 6.4580                15.8708

                     25                     26                     27
                      A                      A                      A
 Frequencies --    434.3397               456.9344               465.0092
 Red. masses --      3.9650                 2.9082                 4.8772
 Frc consts  --      0.4407                 0.3578                 0.6214
 IR Inten    --     10.5379                21.2905                 0.2057

                     28                     29                     30
                      A                      A                      A
 Frequencies --    498.7543               518.7935               525.7735
 Red. masses --      4.0356                11.7739                 3.1233
 Frc consts  --      0.5915                 1.8671                 0.5087
 IR Inten    --     36.0667                12.5779                 0.4706

                     31                     32                     33
                      A                      A                      A
 Frequencies --    529.3165               535.2094               548.3282
 Red. masses --      2.4397                 3.9749                 2.0031
 Frc consts  --      0.4027                 0.6708                 0.3548
 IR Inten    --     56.1041                13.7813                31.5973

                     34                     35                     36
                      A                      A                      A
 Frequencies --    578.8478               580.5084               592.7877
 Red. masses --      6.7818                 5.2349                 8.8297
 Frc consts  --      1.3388                 1.0394                 1.8281
 IR Inten    --     62.6048                27.8522               200.7837

                     37                     38                     39
                      A                      A                      A
 Frequencies --    600.5970               630.5311               635.8708
 Red. masses --      4.9876                 5.3461                 3.3414
 Frc consts  --      1.0600                 1.2523                 0.7960
 IR Inten    --     18.6618                 9.7629                48.5162

                     40                     41                     42
                      A                      A                      A
 Frequencies --    658.8305               670.5004               690.7111
 Red. masses --      5.1095                 4.3523                 3.3784
 Frc consts  --      1.3067                 1.1528                 0.9496
 IR Inten    --      8.7187                54.5605                25.0149

                     43                     44                     45
                      A                      A                      A
 Frequencies --    717.6707               751.9361               755.4687
 Red. masses --      2.0444                 3.6473                 5.7926
 Frc consts  --      0.6204                 1.2150                 1.9479
 IR Inten    --     43.1593                 3.7032                11.6561

                     46                     47                     48
                      A                      A                      A
 Frequencies --    765.7573               784.7453               802.5339
 Red. masses --      3.1738                 3.2563                 6.2790
 Frc consts  --      1.0965                 1.1815                 2.3827
 IR Inten    --     34.7176                20.4076                11.6234

                     49                     50                     51
                      A                      A                      A
 Frequencies --    847.7117               852.6215               878.6318
 Red. masses --      3.7196                 3.7115                 1.2558
 Frc consts  --      1.5748                 1.5897                 0.5712
 IR Inten    --     30.4891                 5.1780                 0.1994

                     52                     53                     54
                      A                      A                      A
 Frequencies --    896.3397               928.5173               948.6752
 Red. masses --      1.5829                 2.2393                 1.7191
 Frc consts  --      0.7493                 1.1375                 0.9116
 IR Inten    --     23.7581                28.0126                 8.8909

                     55                     56                     57
                      A                      A                      A
 Frequencies --    960.1278               987.2388               994.0959
 Red. masses --      4.6628                 1.5636                 4.4812
 Frc consts  --      2.5325                 0.8979                 2.6092
 IR Inten    --     99.8942                33.6706               169.5440

                     58                     59                     60
                      A                      A                      A
 Frequencies --   1005.2887              1018.1812              1023.4296
 Red. masses --      1.3686                 5.2255                 1.3314
 Frc consts  --      0.8149                 3.1918                 0.8216
 IR Inten    --      0.0848                 0.3537                 0.0597

                     61                     62                     63
                      A                      A                      A
 Frequencies --   1045.4556              1066.6564              1091.2714
 Red. masses --      2.4252                 2.1696                 2.3330
 Frc consts  --      1.5617                 1.4544                 1.6369
 IR Inten    --      6.2432                 3.6861                12.0881

                     64                     65                     66
                      A                      A                      A
 Frequencies --   1116.3247              1121.9542              1132.5000
 Red. masses --      2.8629                 1.5704                 2.0995
 Frc consts  --      2.1020                 1.1647                 1.5865
 IR Inten    --     81.1363                 8.3686               222.4525

                     67                     68                     69
                      A                      A                      A
 Frequencies --   1150.3286              1166.1068              1183.7090
 Red. masses --      4.6109                 3.4399                 1.1322
 Frc consts  --      3.5948                 2.7560                 0.9347
 IR Inten    --     10.1486                73.0844                 1.9809

                     70                     71                     72
                      A                      A                      A
 Frequencies --   1186.0161              1209.8941              1211.4421
 Red. masses --      4.9482                 1.3884                 1.4049
 Frc consts  --      4.1009                 1.1975                 1.2148
 IR Inten    --    290.3256                 4.7110                10.7690

                     73                     74                     75
                      A                      A                      A
 Frequencies --   1230.1173              1246.3624              1253.9973
 Red. masses --      1.6318                 2.3755                10.1382
 Frc consts  --      1.4549                 2.1742                 9.3930
 IR Inten    --     26.3265                29.2018               295.7226

                     76                     77                     78
                      A                      A                      A
 Frequencies --   1265.3263              1275.0087              1287.6274
 Red. masses --      3.3491                 1.9441                 2.2602
 Frc consts  --      3.1592                 1.8621                 2.2079
 IR Inten    --     32.6196               107.4959                73.6750

                     79                     80                     81
                      A                      A                      A
 Frequencies --   1319.5259              1323.8399              1340.4474
 Red. masses --      4.0534                 1.7420                 2.3466
 Frc consts  --      4.1582                 1.7988                 2.4842
 IR Inten    --    130.4481                56.7271                32.5024

                     82                     83                     84
                      A                      A                      A
 Frequencies --   1350.9182              1358.1483              1363.4252
 Red. masses --      4.4110                 3.4662                 1.4382
 Frc consts  --      4.7429                 3.7670                 1.5752
 IR Inten    --     20.0615               184.9284                18.5456

                     85                     86                     87
                      A                      A                      A
 Frequencies --   1385.1011              1389.9714              1453.8428
 Red. masses --      2.1543                 1.4603                 2.5736
 Frc consts  --      2.4351                 1.6623                 3.2050
 IR Inten    --     29.8788                20.0989               146.9082

                     88                     89                     90
                      A                      A                      A
 Frequencies --   1474.5913              1500.0671              1506.0806
 Red. masses --      2.1058                 1.3326                 1.7150
 Frc consts  --      2.6979                 1.7668                 2.2919
 IR Inten    --      9.6181                 1.5492                11.4153

                     91                     92                     93
                      A                      A                      A
 Frequencies --   1531.2691              1540.6970              1551.2442
 Red. masses --      3.0021                 2.5491                 2.4443
 Frc consts  --      4.1474                 3.5652                 3.4655
 IR Inten    --    315.2068               195.9508                 8.0799

                     94                     95                     96
                      A                      A                      A
 Frequencies --   1650.4250              1669.5055              1691.7735
 Red. masses --      7.3234                 5.9730                 6.0559
 Frc consts  --     11.7531                 9.8089                10.2120
 IR Inten    --      4.1000                 0.7239                 6.8729

                     97                     98                     99
                      A                      A                      A
 Frequencies --   1699.7664              1820.7955              2932.4560
 Red. masses --      7.0719                 9.8270                 1.0809
 Frc consts  --     12.0384                19.1952                 5.4765
 IR Inten    --     95.5631               542.0734                84.6587

                    100                    101                    102
                      A                      A                      A
 Frequencies --   3076.7121              3137.8177              3201.2939
 Red. masses --      1.0627                 1.1018                 1.0885
 Frc consts  --      5.9272                 6.3916                 6.5726
 IR Inten    --     24.0731                10.6383                 6.9609

                    103                    104                    105
                      A                      A                      A
 Frequencies --   3209.9350              3219.6246              3228.6124
 Red. masses --      1.0874                 1.0903                 1.0944
 Frc consts  --      6.6011                 6.6591                 6.7215
 IR Inten    --      1.7078                 5.1464                23.6082

                    106                    107                    108
                      A                      A                      A
 Frequencies --   3234.1925              3239.1916              3250.3766
 Red. masses --      1.0902                 1.0984                 1.0904
 Frc consts  --      6.7189                 6.7905                 6.7873
 IR Inten    --      7.4222                17.9936                13.6139

                    109                    110                    111
                      A                      A                      A
 Frequencies --   3537.1886              3572.1620              3617.1933
 Red. masses --      1.0727                 1.0753                 1.0766
 Frc consts  --      7.9073                 8.0845                 8.2995
 IR Inten    --      7.4053                21.3584                24.5430

 - Thermochemistry -
 -------------------
 Temperature   298.150 Kelvin.  Pressure   1.00000 Atm.
 Atom     1 has atomic number  6 and mass  12.00000

 Molecular mass:   384.06297 amu.
 Principal axes and moments of inertia in atomic units:
                           1         2         3
     Eigenvalues --  5457.41825********************
           X            0.99995  -0.01020  -0.00010
           Y            0.01020   0.99994  -0.00262
           Z            0.00013   0.00262   1.00000
 This molecule is an asymmetric top.
 Rotational symmetry number  1.
 Warning -- assumption of classical behavior for rotation
           may cause significant error
 Rotational temperatures (Kelvin)      0.01587     0.00485     0.00398
 Rotational constants (GHZ):           0.33070     0.10106     0.08297
 Zero-point vibrational energy     744502.2 (Joules/Mol)
                                  177.94030 (Kcal/Mol)
 Warning -- explicit consideration of  37 degrees of freedom as
           vibrations may cause significant error
 Vibrational temperatures:     27.05    41.89    63.15    71.76    83.99
          (Kelvin)            117.37   136.48   165.13   186.35   206.72
                              228.57   261.40   269.99   308.03   339.66
                              364.21   378.64   418.53   461.07   468.42
                              515.58   567.70   599.00   599.76   624.92
                              657.43   669.04   717.60   746.43   756.47
                              761.57   770.05   788.92   832.83   835.22
                              852.89   864.13   907.19   914.88   947.91
                              964.70   993.78  1032.57  1081.87  1086.95
                             1101.75  1129.07  1154.67  1219.67  1226.73
                             1264.16  1289.63  1335.93  1364.93  1381.41
                             1420.42  1430.28  1446.39  1464.94  1472.49
                             1504.18  1534.68  1570.10  1606.14  1614.24
                             1629.41  1655.07  1677.77  1703.09  1706.41
                             1740.77  1742.99  1769.86  1793.24  1804.22
                             1820.52  1834.45  1852.61  1898.50  1904.71
                             1928.60  1943.67  1954.07  1961.66  1992.85
                             1999.86  2091.76  2121.61  2158.26  2166.91
                             2203.15  2216.72  2231.89  2374.59  2402.05
                             2434.08  2445.58  2619.72  4219.15  4426.70
                             4514.62  4605.95  4618.38  4632.32  4645.25
                             4653.28  4660.47  4676.57  5089.23  5139.54
                             5204.33

 Zero-point correction=                           0.283566 (Hartree/Particle)
 Thermal correction to Energy=                    0.305403
 Thermal correction to Enthalpy=                  0.306347
 Thermal correction to Gibbs Free Energy=         0.230780
 Sum of electronic and zero-point Energies=          -1704.425774
 Sum of electronic and thermal Energies=             -1704.403937
 Sum of electronic and thermal Enthalpies=           -1704.402993
 Sum of electronic and thermal Free Energies=        -1704.478560

                     E (Thermal)             CV                S
                      KCal/Mol        Cal/Mol-Kelvin    Cal/Mol-Kelvin
 Total                  191.643             84.493            159.044
 Electronic               0.000              0.000              0.000
 Translational            0.889              2.981             43.729
 Rotational               0.889              2.981             36.004
 Vibrational            189.866             78.532             79.311
 Vibration     1          0.593              1.986              6.757
 Vibration     2          0.593              1.984              5.889
 Vibration     3          0.595              1.980              5.075
 Vibration     4          0.595              1.978              4.822
 Vibration     5          0.596              1.974              4.511
 Vibration     6          0.600              1.962              3.853
 Vibration     7          0.603              1.953              3.557
 Vibration     8          0.608              1.937              3.187
 Vibration     9          0.612              1.924              2.953
 Vibration    10          0.616              1.909              2.754
 Vibration    11          0.621              1.893              2.563
 Vibration    12          0.630              1.865              2.311
 Vibration    13          0.632              1.857              2.251
 Vibration    14          0.644              1.819              2.009
 Vibration    15          0.655              1.786              1.832
 Vibration    16          0.664              1.757              1.709
 Vibration    17          0.670              1.740              1.641
 Vibration    18          0.687              1.691              1.469
 Vibration    19          0.706              1.634              1.308
 Vibration    20          0.710              1.624              1.282
 Vibration    21          0.733              1.558              1.129
 Vibration    22          0.762              1.482              0.983
 Vibration    23          0.780              1.435              0.905
 Vibration    24          0.780              1.434              0.903
 Vibration    25          0.795              1.395              0.845
 Vibration    26          0.815              1.346              0.775
 Vibration    27          0.822              1.328              0.752
 Vibration    28          0.854              1.253              0.661
 Vibration    29          0.874              1.208              0.613
 Vibration    30          0.881              1.193              0.597
 Vibration    31          0.884              1.185              0.589
 Vibration    32          0.890              1.172              0.576
 Vibration    33          0.904              1.143              0.548
 Vibration    34          0.935              1.077              0.488
 Vibration    35          0.937              1.073              0.484
 Vibration    36          0.950              1.047              0.462
 Vibration    37          0.959              1.031              0.449

                           ! Non-Optimized Parameters !
 Normal termination of Gaussian 16 at Fri Jul  1 15:00:38 2022.
