 Gaussian 16, Revision C.01,
 Gaussian 16:  ES64L-G16RevC.01  3-Jul-2019

 --------------------------------------------------
 #M062X/gen 6D INT(grid=ultrafine) OPT Freq=noraman
 --------------------------------------------------

 ---------
 A.34.freq
 ---------
 Symbolic Z-matrix:
 Charge = -1 Multiplicity = 1

 SCF Done:  E(RM062X) =  -2515.49598059     A.U. after   18 cycles
 SCF Done:  E(RM062X) =  -2515.49937752     A.U. after   17 cycles
 SCF Done:  E(RM062X) =  -2515.50036817     A.U. after   16 cycles
 SCF Done:  E(RM062X) =  -2515.50053186     A.U. after   16 cycles
 SCF Done:  E(RM062X) =  -2515.50054328     A.U. after   15 cycles
 SCF Done:  E(RM062X) =  -2515.50063996     A.U. after   16 cycles
 SCF Done:  E(RM062X) =  -2515.50065956     A.U. after   14 cycles
 SCF Done:  E(RM062X) =  -2515.50066922     A.U. after   15 cycles
 SCF Done:  E(RM062X) =  -2515.50067091     A.U. after   13 cycles
 SCF Done:  E(RM062X) =  -2515.50067215     A.U. after   13 cycles
 SCF Done:  E(RM062X) =  -2515.50067277     A.U. after   13 cycles
 Optimization completed.
    -- Stationary point found.
 Normal termination of Gaussian 16 at Fri Jul  1 09:19:45 2022.

 ------------------------------------------------------------------
 #N Geom=AllCheck Guess=TCheck SCRF=Check GenChk RM062X/ChkBas Freq
 ------------------------------------------------------------------

 Structure from the checkpoint file:  "/jobfs/49789050.gadi-pbs/Gau-2642849.chk"
 ---------
 A.34.freq
 ---------
 Charge = -1 Multiplicity = 1

                         Standard orientation:
 ---------------------------------------------------------------------
 Center     Atomic      Atomic             Coordinates (Angstroms)
 Number     Number       Type             X           Y           Z
 ---------------------------------------------------------------------
      1          6           0        2.043843   -0.195255   -0.083342
      2          6           0        1.708772    1.116266   -0.430449
      3         17           0        2.872802    2.410061   -0.314494
      4          6           0        0.435985    1.471826   -0.869677
      5          1           0        0.219299    2.506138   -1.122299
      6          6           0       -0.548857    0.493654   -0.975430
      7          6           0       -0.238444   -0.834847   -0.643664
      8          6           0       -1.276599   -1.881997   -0.784738
      9          6           0        1.048091   -1.158812   -0.204894
     10         16           0        3.703312   -0.699624    0.552991
     11          8           0        3.508373   -2.148411    0.724262
     12          8           0        4.590949   -0.271287   -0.550991
     13          7           0        3.928015    0.008712    1.923059
     14          1           0        4.328734    0.924350    1.713600
     15          7           0       -1.836638    0.803153   -1.450998
     16          6           0       -2.900268   -0.016114   -0.926725
     17          7           0       -2.538589   -1.398007   -1.112103
     18          1           0       -2.051480    1.793615   -1.429638
     19          8           0       -1.086311   -3.078864   -0.666578
     20          1           0        1.289919   -2.187189    0.049187
     21          1           0       -3.274189   -2.092127   -1.057140
     22          6           0       -3.181741    0.285443    0.573137
     23          1           0       -3.822481    0.193880   -1.479080
     24          1           0       -2.303267    0.091583    1.189400
     25         17           0       -4.506331   -0.749977    1.169734
     26         17           0       -3.611049    2.008989    0.779439
 ---------------------------------------------------------------------

 SCF Done:  E(RM062X) =  -2515.50067277     A.U. after    2 cycles

 The electronic state is 1-A.
 Alpha  occ. eigenvalues -- -102.62471-102.62333-102.57252 -89.98317 -19.54075
 Alpha  occ. eigenvalues --  -19.46205 -19.46141 -14.72421 -14.72393 -14.56675
 Alpha  occ. eigenvalues --  -10.61783 -10.59220 -10.58562 -10.53104 -10.52865
 Alpha  occ. eigenvalues --  -10.48002 -10.47806 -10.46698 -10.46185  -9.77171
 Alpha  occ. eigenvalues --   -9.77028  -9.71888  -8.29089  -7.49567  -7.49431
 Alpha  occ. eigenvalues --   -7.48904  -7.48885  -7.48755  -7.48741  -7.44292
 Alpha  occ. eigenvalues --   -7.43642  -7.43602  -6.21302  -6.21278  -6.21175
 Alpha  occ. eigenvalues --   -1.09318  -1.05605  -1.03376  -0.95392  -0.94275
 Alpha  occ. eigenvalues --   -0.93998  -0.90038  -0.86949  -0.84779  -0.80928
 Alpha  occ. eigenvalues --   -0.77794  -0.76125  -0.72975  -0.66447  -0.64745
 Alpha  occ. eigenvalues --   -0.62562  -0.57168  -0.56042  -0.54044  -0.51852
 Alpha  occ. eigenvalues --   -0.50242  -0.49846  -0.47138  -0.45242  -0.44946
 Alpha  occ. eigenvalues --   -0.43310  -0.43079  -0.42263  -0.41351  -0.40664
 Alpha  occ. eigenvalues --   -0.39799  -0.38343  -0.36769  -0.36002  -0.34937
 Alpha  occ. eigenvalues --   -0.34147  -0.33425  -0.33051  -0.32422  -0.31623
 Alpha  occ. eigenvalues --   -0.28727  -0.27732  -0.26359  -0.25828  -0.25404
 Alpha  occ. eigenvalues --   -0.23128  -0.21920  -0.21509  -0.20481  -0.18590
 Alpha  occ. eigenvalues --   -0.16931  -0.14194
 Alpha virt. eigenvalues --    0.06810   0.06997   0.07552   0.08100   0.09690
 Alpha virt. eigenvalues --    0.10311   0.11008   0.11376   0.12114   0.12791
 Alpha virt. eigenvalues --    0.13584   0.13747   0.14394   0.14740   0.15672

 Mulliken charges:
               1
     1  C   -2.614609
     2  C    1.457857
     3  Cl   0.172260
     4  C   -1.334488
     5  H    0.207558
     6  C    0.511112
     7  C    0.831003
     8  C    0.714955
     9  C   -0.471997
    10  S    1.442898
    11  O   -0.649369
    12  O   -0.520300
    13  N   -0.709886
    14  H    0.348484
    15  N   -0.434973
    16  C   -0.587320
    17  N   -0.522458
    18  H    0.421952
    19  O   -0.498859
    20  H    0.304686
    21  H    0.450002
    22  C   -0.222161
    23  H    0.250277
    24  H    0.343183
    25  Cl   0.053355
    26  Cl   0.056840
 Sum of Mulliken charges =  -1.00000

 Dipole moment (field-independent basis, Debye):
    X=            -16.7833    Y=              6.8682    Z=             -3.3069  Tot=             18.4333
 Quadrupole moment (field-independent basis, Debye-Ang):
   XX=           -216.3771   YY=           -160.8398   ZZ=           -156.0277
   XY=             14.4199   XZ=             -5.5604   YZ=              0.1066

  Exact polarizability:     255.908      12.297     207.070      15.113      -4.501     141.058
 Approx polarizability:     270.399      16.910     281.676      18.390     -10.673     187.376

                      1                      2                      3
                      A                      A                      A
 Frequencies --     29.9844                40.9990                45.3826
 Red. masses --     14.2590                17.1843                19.7888
 Frc consts  --      0.0076                 0.0170                 0.0240
 IR Inten    --      1.6982                 0.7804                 0.9069

                      4                      5                      6
                      A                      A                      A
 Frequencies --     60.2653                78.3338               120.2145
 Red. masses --     10.8507                13.5392                11.1325
 Frc consts  --      0.0232                 0.0489                 0.0948
 IR Inten    --      0.0471                 1.1792                 0.8665

                      7                      8                      9
                      A                      A                      A
 Frequencies --    136.1246               180.4884               189.0000
 Red. masses --     11.8217                 9.8662                12.7602
 Frc consts  --      0.1291                 0.1894                 0.2686
 IR Inten    --      0.6169                 0.9188                 0.0818

                     10                     11                     12
                      A                      A                      A
 Frequencies --    211.6176               234.8723               253.3007
 Red. masses --     12.3129                 7.1428                 7.9498
 Frc consts  --      0.3249                 0.2322                 0.3005
 IR Inten    --      0.2106                 1.1860                 0.8203

                     13                     14                     15
                      A                      A                      A
 Frequencies --    264.2925               278.5634               313.1456
 Red. masses --     10.3923                 9.5759                 7.6836
 Frc consts  --      0.4277                 0.4378                 0.4439
 IR Inten    --      2.4204                10.1560                 2.5062

                     16                     17                     18
                      A                      A                      A
 Frequencies --    342.1569               374.1030               393.1909
 Red. masses --      9.5155                 7.1292                 5.2907
 Frc consts  --      0.6563                 0.5879                 0.4819
 IR Inten    --      7.3199                14.5879                 8.8716

                     19                     20                     21
                      A                      A                      A
 Frequencies --    417.0251               434.4927               458.0362
 Red. masses --      3.4825                 4.5414                 3.5525
 Frc consts  --      0.3568                 0.5051                 0.4391
 IR Inten    --     30.0947                 2.6665                 2.4013

                     22                     23                     24
                      A                      A                      A
 Frequencies --    477.2511               500.5953               523.5661
 Red. masses --      3.1723                 3.1872                 2.0800
 Frc consts  --      0.4257                 0.4706                 0.3359
 IR Inten    --     19.6357                39.3795                75.7976

                     25                     26                     27
                      A                      A                      A
 Frequencies --    527.7283               552.7895               563.1850
 Red. masses --      5.4498                 5.6743                 5.4616
 Frc consts  --      0.8942                 1.0216                 1.0206
 IR Inten    --     11.7635                51.7198                56.2516

                     28                     29                     30
                      A                      A                      A
 Frequencies --    584.0956               615.3646               636.7797
 Red. masses --      1.7595                 6.9611                 2.9729
 Frc consts  --      0.3537                 1.5531                 0.7103
 IR Inten    --    204.5892                62.6917                41.5119

                     31                     32                     33
                      A                      A                      A
 Frequencies --    665.5766               672.5870               723.3502
 Red. masses --      3.2121                 7.5221                 4.5829
 Frc consts  --      0.8384                 2.0049                 1.4128
 IR Inten    --     46.4028                29.2615                 1.0831

                     34                     35                     36
                      A                      A                      A
 Frequencies --    762.0915               779.2428               797.1456
 Red. masses --      6.5941                 5.2232                 6.1532
 Frc consts  --      2.2564                 1.8687                 2.3037
 IR Inten    --     17.0688                29.8050                44.9279

                     37                     38                     39
                      A                      A                      A
 Frequencies --    822.2533               865.0830               904.7970
 Red. masses --      6.8713                 1.5522                 5.0266
 Frc consts  --      2.7372                 0.6844                 2.4245
 IR Inten    --     94.0907                34.1619                22.2951

                     40                     41                     42
                      A                      A                      A
 Frequencies --    938.6496               980.0136               987.1892
 Red. masses --      5.6360                 4.2855                 1.6823
 Frc consts  --      2.9257                 2.4250                 0.9659
 IR Inten    --     39.8848               228.2705                56.3898

                     43                     44                     45
                      A                      A                      A
 Frequencies --   1013.5375              1058.5550              1114.5204
 Red. masses --      4.4958                 3.5772                 2.6878
 Frc consts  --      2.7211                 2.3617                 1.9670
 IR Inten    --      2.8256                18.2002                50.1429

                     46                     47                     48
                      A                      A                      A
 Frequencies --   1128.1771              1137.8669              1165.0231
 Red. masses --      2.0880                 1.9329                 3.5784
 Frc consts  --      1.5658                 1.4745                 2.8616
 IR Inten    --    181.2334                48.1148               179.3957

                     49                     50                     51
                      A                      A                      A
 Frequencies --   1205.2623              1235.4166              1250.8415
 Red. masses --      2.0351                 1.3497                 1.3248
 Frc consts  --      1.7418                 1.2137                 1.2212
 IR Inten    --     38.3115                49.4700                45.7216

                     52                     53                     54
                      A                      A                      A
 Frequencies --   1276.0094              1278.8791              1281.3994
 Red. masses --      1.2968                 2.4097                 4.4872
 Frc consts  --      1.2441                 2.3221                 4.3410
 IR Inten    --     41.7916                16.7403               170.8872

                     55                     56                     57
                      A                      A                      A
 Frequencies --   1316.8397              1333.6538              1369.5458
 Red. masses --      3.0705                 5.2036                 2.6671
 Frc consts  --      3.1371                 5.4531                 2.9474
 IR Inten    --     97.1653                88.7830                22.7949

                     58                     59                     60
                      A                      A                      A
 Frequencies --   1386.1308              1448.0225              1467.8000
 Red. masses --      1.2457                 3.3409                 1.6009
 Frc consts  --      1.4101                 4.1273                 2.0322
 IR Inten    --      2.6452                43.9500                52.1817

                     61                     62                     63
                      A                      A                      A
 Frequencies --   1512.4082              1533.0654              1647.7290
 Red. masses --      3.0680                 2.4250                 7.3724
 Frc consts  --      4.1346                 3.3580                11.7932
 IR Inten    --     11.9356               249.2275                18.9663

                     64                     65                     66
                      A                      A                      A
 Frequencies --   1680.2662              1822.3590              3109.3062
 Red. masses --      7.0472                 9.9283                 1.0880
 Frc consts  --     11.7225                19.4265                 6.1973
 IR Inten    --    302.5284               503.1738                26.1292

                     67                     68                     69
                      A                      A                      A
 Frequencies --   3190.5831              3220.9216              3246.6306
 Red. masses --      1.0883                 1.0916                 1.0904
 Frc consts  --      6.5274                 6.6724                 6.7720
 IR Inten    --      2.1389                 7.2422                14.0199

                     70                     71                     72
                      A                      A                      A
 Frequencies --   3525.3887              3611.5699              3637.8173
 Red. masses --      1.0728                 1.0758                 1.0771
 Frc consts  --      7.8558                 8.2677                 8.3983
 IR Inten    --      6.6202                20.4597                48.2251

 - Thermochemistry -
 -------------------
 Temperature   298.150 Kelvin.  Pressure   1.00000 Atm.
 Atom     1 has atomic number  6 and mass  12.00000

 Molecular mass:   341.92737 amu.
 Principal axes and moments of inertia in atomic units:
                           1         2         3
     Eigenvalues --  3701.60257********************
           X            0.99996   0.00039   0.00855
           Y           -0.00036   0.99999  -0.00343
           Z           -0.00855   0.00343   0.99996
 This molecule is an asymmetric top.
 Rotational symmetry number  1.
 Warning -- assumption of classical behavior for rotation
           may cause significant error
 Rotational temperatures (Kelvin)      0.02340     0.00700     0.00610
 Rotational constants (GHZ):           0.48756     0.14588     0.12707
 Zero-point vibrational energy     442262.1 (Joules/Mol)
                                  105.70318 (Kcal/Mol)
 Warning -- explicit consideration of  29 degrees of freedom as
           vibrations may cause significant error
 Vibrational temperatures:     43.14    58.99    65.30    86.71   112.70
          (Kelvin)            172.96   195.85   259.68   271.93   304.47
                              337.93   364.44   380.26   400.79   450.55
                              492.29   538.25   565.71   600.01   625.14
                              659.01   686.66   720.25   753.29   759.28
                              795.34   810.30   840.38   885.37   916.18
                              957.62   967.70  1040.74  1096.48  1121.16
                             1146.91  1183.04  1244.66  1301.80  1350.51
                             1410.02  1420.35  1458.25  1523.02  1603.55
                             1623.20  1637.14  1676.21  1734.10  1777.49
                             1799.68  1835.89  1840.02  1843.65  1894.64
                             1918.83  1970.47  1994.33  2083.38  2111.84
                             2176.02  2205.74  2370.71  2417.53  2621.97
                             4473.60  4590.54  4634.19  4671.18  5072.25
                             5196.24  5234.01

 Zero-point correction=                           0.168449 (Hartree/Particle)
 Thermal correction to Energy=                    0.185606
 Thermal correction to Enthalpy=                  0.186550
 Thermal correction to Gibbs Free Energy=         0.121397
 Sum of electronic and zero-point Energies=          -2515.332224
 Sum of electronic and thermal Energies=             -2515.315067
 Sum of electronic and thermal Enthalpies=           -2515.314122
 Sum of electronic and thermal Free Energies=        -2515.379276

                     E (Thermal)             CV                S
                      KCal/Mol        Cal/Mol-Kelvin    Cal/Mol-Kelvin
 Total                  116.470             64.010            137.127
 Electronic               0.000              0.000              0.000
 Translational            0.889              2.981             43.383
 Rotational               0.889              2.981             34.830
 Vibrational            114.692             58.048             58.915
 Vibration     1          0.594              1.984              5.830
 Vibration     2          0.594              1.981              5.210
 Vibration     3          0.595              1.979              5.009
 Vibration     4          0.597              1.973              4.448
 Vibration     5          0.600              1.964              3.932
 Vibration     6          0.609              1.932              3.097
 Vibration     7          0.614              1.917              2.858
 Vibration     8          0.629              1.866              2.323
 Vibration     9          0.633              1.855              2.238
 Vibration    10          0.643              1.823              2.030
 Vibration    11          0.655              1.787              1.841
 Vibration    12          0.664              1.757              1.707
 Vibration    13          0.671              1.738              1.633
 Vibration    14          0.679              1.713              1.542
 Vibration    15          0.701              1.649              1.346
 Vibration    16          0.721              1.591              1.202
 Vibration    17          0.745              1.525              1.063
 Vibration    18          0.760              1.485              0.988
 Vibration    19          0.780              1.433              0.902
 Vibration    20          0.795              1.395              0.844
 Vibration    21          0.816              1.343              0.772
 Vibration    22          0.834              1.301              0.718
 Vibration    23          0.856              1.249              0.657
 Vibration    24          0.879              1.198              0.602
 Vibration    25          0.883              1.189              0.592
 Vibration    26          0.908              1.134              0.538
 Vibration    27          0.919              1.111              0.518
 Vibration    28          0.941              1.066              0.478
 Vibration    29          0.975              0.999              0.424

                           ! Non-Optimized Parameters !
 Normal termination of Gaussian 16 at Fri Jul  1 09:31:16 2022.
