 Gaussian 16, Revision C.01,
 Gaussian 16:  ES64L-G16RevC.01  3-Jul-2019

 --------------------------------------------------
 #M062X/gen 6D INT(grid=ultrafine) OPT Freq=noraman
 --------------------------------------------------

 ---------
 A.35.freq
 ---------
 Symbolic Z-matrix:
 Charge = -1 Multiplicity = 1

 SCF Done:  E(RM062X) =  -2845.21721058     A.U. after   18 cycles
 SCF Done:  E(RM062X) =  -2845.22124282     A.U. after   15 cycles
 SCF Done:  E(RM062X) =  -2845.22222649     A.U. after   15 cycles
 SCF Done:  E(RM062X) =  -2845.22211215     A.U. after   15 cycles
 SCF Done:  E(RM062X) =  -2845.22257896     A.U. after   16 cycles
 SCF Done:  E(RM062X) =  -2845.22277682     A.U. after   15 cycles
 SCF Done:  E(RM062X) =  -2845.22295756     A.U. after   15 cycles
 SCF Done:  E(RM062X) =  -2845.22308283     A.U. after   15 cycles
 SCF Done:  E(RM062X) =  -2845.22314012     A.U. after   15 cycles
 SCF Done:  E(RM062X) =  -2845.22317530     A.U. after   14 cycles
 SCF Done:  E(RM062X) =  -2845.22318309     A.U. after   14 cycles
 SCF Done:  E(RM062X) =  -2845.22319014     A.U. after   14 cycles
 SCF Done:  E(RM062X) =  -2845.22319586     A.U. after   12 cycles
 SCF Done:  E(RM062X) =  -2845.22319752     A.U. after   12 cycles
 SCF Done:  E(RM062X) =  -2845.22319798     A.U. after   11 cycles
 SCF Done:  E(RM062X) =  -2845.22319804     A.U. after   11 cycles
 SCF Done:  E(RM062X) =  -2845.22319805     A.U. after    9 cycles
 Optimization completed.
    -- Stationary point found.
 Normal termination of Gaussian 16 at Fri Jul  1 23:04:01 2022.

 ------------------------------------------------------------------
 #N Geom=AllCheck Guess=TCheck SCRF=Check GenChk RM062X/ChkBas Freq
 ------------------------------------------------------------------

 Structure from the checkpoint file:  "/jobfs/49976750.gadi-pbs/Gau-1851145.chk"
 ---------
 A.35.freq
 ---------
 Charge = -1 Multiplicity = 1

                         Standard orientation:
 ---------------------------------------------------------------------
 Center     Atomic      Atomic             Coordinates (Angstroms)
 Number     Number       Type             X           Y           Z
 ---------------------------------------------------------------------
      1          6           0       -3.437688   -0.197502    0.076273
      2          6           0       -2.872181   -1.442108   -0.215439
      3         17           0       -3.852710   -2.882859   -0.285867
      4          6           0       -1.516763   -1.606510   -0.470507
      5          1           0       -1.130450   -2.589565   -0.724952
      6          6           0       -0.650781   -0.510081   -0.421346
      7          6           0       -1.211743    0.734866   -0.117531
      8         16           0       -0.156701    2.127913    0.058640
      9          6           0       -2.578070    0.892644    0.117162
     10          1           0       -3.002911    1.870331    0.332421
     11         16           0       -5.232406    0.073116    0.430288
     12          8           0       -5.253118    1.530772    0.633924
     13          8           0       -5.859339   -0.437643   -0.808275
     14          7           0       -5.584800   -0.690127    1.740854
     15          1           0       -5.820461   -1.645135    1.466717
     16          7           0        0.697204   -0.683681   -0.746002
     17          6           0        1.674983    0.352242   -0.481377
     18          7           0        1.130102    1.631346   -0.961002
     19          8           0       -0.736459    3.319337   -0.540034
     20          8           0        0.354970    2.216306    1.427524
     21          1           0        1.048295   -1.611018   -0.532696
     22          6           0        2.110348    2.720623   -1.063159
     23          6           0        2.959690    0.008195   -1.237541
     24         16           0        3.651514   -1.613225   -0.768692
     25          6           0        4.383946   -1.209624    0.841316
     26          6           0        5.793075   -0.670418    0.742356
     27          1           0        1.900086    0.444129    0.600452
     28          1           0        2.729311    2.562165   -1.948176
     29          1           0        2.746366    2.801122   -0.169333
     30          1           0        1.562817    3.655192   -1.195230
     31          1           0        3.732061    0.762223   -1.085691
     32          1           0        2.733522   -0.062872   -2.305977
     33          1           0        4.424867   -2.129203    1.429996
     34          1           0        3.774043   -0.483929    1.385915
     35          9           0        6.636792   -1.547825    0.179656
     36          9           0        6.275131   -0.386811    1.967450
     37          9           0        5.857535    0.463902    0.021697
 ---------------------------------------------------------------------

 SCF Done:  E(RM062X) =  -2845.22319805     A.U. after    2 cycles

 The electronic state is 1-A.
 Alpha  occ. eigenvalues -- -102.57570 -90.08210 -89.98735 -89.90105 -25.26579
 Alpha  occ. eigenvalues --  -25.26427 -25.26372 -19.56639 -19.56362 -19.46622
 Alpha  occ. eigenvalues --  -19.46534 -14.73560 -14.72210 -14.57056 -10.77456
 Alpha  occ. eigenvalues --  -10.58273 -10.57001 -10.54727 -10.54024 -10.53472
 Alpha  occ. eigenvalues --  -10.52642 -10.50392 -10.48409 -10.47950 -10.46726
 Alpha  occ. eigenvalues --   -9.72204  -8.39354  -8.29505  -8.24531  -7.44610
 Alpha  occ. eigenvalues --   -7.43955  -7.43918  -6.31563  -6.31486  -6.31394
 Alpha  occ. eigenvalues --   -6.21717  -6.21697  -6.21590  -6.16618  -6.16353
 Alpha  occ. eigenvalues --   -6.15920  -1.43108  -1.33852  -1.33719  -1.16619
 Alpha  occ. eigenvalues --   -1.06032  -1.04831  -1.02887  -0.96140  -0.94419
 Alpha  occ. eigenvalues --   -0.90981  -0.89917  -0.86118  -0.83114  -0.81341
 Alpha  occ. eigenvalues --   -0.78653  -0.77532  -0.74975  -0.73751  -0.70793
 Alpha  occ. eigenvalues --   -0.66249  -0.65773  -0.65161  -0.64589  -0.62979
 Alpha  occ. eigenvalues --   -0.59916  -0.57889  -0.56984  -0.54504  -0.54006
 Alpha  occ. eigenvalues --   -0.53660  -0.53456  -0.51938  -0.50457  -0.49834
 Alpha  occ. eigenvalues --   -0.48913  -0.48308  -0.47453  -0.46977  -0.46417
 Alpha  occ. eigenvalues --   -0.46260  -0.44794  -0.44490  -0.44100  -0.43407
 Alpha  occ. eigenvalues --   -0.42898  -0.42386  -0.40773  -0.40414  -0.40067
 Alpha  occ. eigenvalues --   -0.38904  -0.37721  -0.36731  -0.35327  -0.35157
 Alpha  occ. eigenvalues --   -0.33717  -0.33377  -0.32054  -0.31260  -0.29971
 Alpha  occ. eigenvalues --   -0.29032  -0.28238  -0.26484  -0.26290  -0.25938
 Alpha  occ. eigenvalues --   -0.23522  -0.22301  -0.21946  -0.20924  -0.18818
 Alpha  occ. eigenvalues --   -0.17308  -0.14569
 Alpha virt. eigenvalues --    0.05546   0.06411   0.07032   0.08131   0.08561
 Alpha virt. eigenvalues --    0.09222   0.09437   0.09921   0.10569   0.10844
 Alpha virt. eigenvalues --    0.11109   0.11445   0.12022   0.12810   0.13186

 Mulliken charges:
               1
     1  C   -2.087323
     2  C    0.863804
     3  Cl   0.208482
     4  C   -0.242513
     5  H    0.208722
     6  C    0.412309
     7  C   -0.984090
     8  S    1.592566
     9  C   -0.058825
    10  H    0.300817
    11  S    1.524693
    12  O   -0.657683
    13  O   -0.512969
    14  N   -0.686626
    15  H    0.348568
    16  N   -0.393288
    17  C   -0.536195
    18  N   -0.505897
    19  O   -0.528354
    20  O   -0.405201
    21  H    0.412973
    22  C   -0.511120
    23  C   -0.515529
    24  S    0.336325
    25  C   -0.805569
    26  C    0.963564
    27  H    0.248625
    28  H    0.226271
    29  H    0.253657
    30  H    0.266744
    31  H    0.282118
    32  H    0.297822
    33  H    0.287876
    34  H    0.294419
    35  F   -0.286598
    36  F   -0.300133
    37  F   -0.312441
 Sum of Mulliken charges =  -1.00000

 Dipole moment (field-independent basis, Debye):
    X=             23.3815    Y=             -4.5262    Z=             -2.9049  Tot=             23.9921
 Quadrupole moment (field-independent basis, Debye-Ang):
   XX=           -327.9526   YY=           -191.5722   ZZ=           -192.8982
   XY=             10.7689   XZ=             10.6925   YZ=             -7.9796

  Exact polarizability:     321.130      12.570     240.394     -12.087       2.693     177.514
 Approx polarizability:     321.624       7.164     315.483      -7.042       6.615     249.329

                      1                      2                      3
                      A                      A                      A
 Frequencies --     12.0393                25.5503                26.7846
 Red. masses --     11.9557                11.9703                12.2258
 Frc consts  --      0.0010                 0.0046                 0.0052
 IR Inten    --      2.9162                 1.3638                 0.6644

                      4                      5                      6
                      A                      A                      A
 Frequencies --     45.2975                49.1088                67.3990
 Red. masses --     12.9979                 7.6104                 4.8845
 Frc consts  --      0.0157                 0.0108                 0.0131
 IR Inten    --      1.2087                 0.0766                 1.7870

                      7                      8                      9
                      A                      A                      A
 Frequencies --     77.1366                88.4694               104.0873
 Red. masses --     10.2870                12.4122                 7.8648
 Frc consts  --      0.0361                 0.0572                 0.0502
 IR Inten    --      0.7752                 1.4579                 2.2782

                     10                     11                     12
                      A                      A                      A
 Frequencies --    121.0042               128.0778               172.0051
 Red. masses --     10.4072                 3.9447                13.4279
 Frc consts  --      0.0898                 0.0381                 0.2341
 IR Inten    --      0.3881                 2.1703                 0.1803

                     13                     14                     15
                      A                      A                      A
 Frequencies --    181.7900               184.1009               196.8787
 Red. masses --     12.1407                 6.3911                13.4785
 Frc consts  --      0.2364                 0.1276                 0.3078
 IR Inten    --      0.8868                 0.8743                 1.3182

                     16                     17                     18
                      A                      A                      A
 Frequencies --    224.3629               236.1958               248.4217
 Red. masses --      5.6201                 4.5146                 5.0072
 Frc consts  --      0.1667                 0.1484                 0.1821
 IR Inten    --      0.5183                 0.5187                 2.3980

                     19                     20                     21
                      A                      A                      A
 Frequencies --    255.5099               276.5168               293.4056
 Red. masses --      6.0607                 1.6215                 6.7656
 Frc consts  --      0.2331                 0.0730                 0.3432
 IR Inten    --      4.5944                 1.8955                 1.1295

                     22                     23                     24
                      A                      A                      A
 Frequencies --    307.9079               330.1871               348.0015
 Red. masses --      7.1610                 4.8055                 2.9011
 Frc consts  --      0.4000                 0.3087                 0.2070
 IR Inten    --     19.8931                 1.1398                 2.8672

                     25                     26                     27
                      A                      A                      A
 Frequencies --    359.0372               363.3261               382.6957
 Red. masses --      5.0537                 4.6750                 2.9975
 Frc consts  --      0.3838                 0.3636                 0.2586
 IR Inten    --      0.6501                12.8195                 3.5508

                     28                     29                     30
                      A                      A                      A
 Frequencies --    400.3272               411.2131               424.6458
 Red. masses --      3.3263                 3.8529                 4.2377
 Frc consts  --      0.3141                 0.3839                 0.4502
 IR Inten    --     20.4114                 8.3995                11.0837

                     31                     32                     33
                      A                      A                      A
 Frequencies --    459.0781               476.4775               502.2611
 Red. masses --      3.1922                 2.8405                 3.2750
 Frc consts  --      0.3964                 0.3800                 0.4868
 IR Inten    --     12.2775                11.5203                81.2527

                     34                     35                     36
                      A                      A                      A
 Frequencies --    511.9771               519.2528               521.0616
 Red. masses --      1.9358                 4.6465                 8.0124
 Frc consts  --      0.2990                 0.7381                 1.2817
 IR Inten    --    101.2536                52.9408                14.7731

                     37                     38                     39
                      A                      A                      A
 Frequencies --    532.5598               534.3340               540.8952
 Red. masses --      8.4221                11.3281                 4.6941
 Frc consts  --      1.4074                 1.9056                 0.8091
 IR Inten    --      1.7220                 4.2459                71.0698

                     40                     41                     42
                      A                      A                      A
 Frequencies --    561.6037               580.6647               612.0361
 Red. masses --      7.0006                 4.8309                 8.0042
 Frc consts  --      1.3009                 0.9597                 1.7665
 IR Inten    --     22.3161               139.5338                45.9498

                     43                     44                     45
                      A                      A                      A
 Frequencies --    642.3528               658.5760               673.3205
 Red. masses --      8.9704                 7.4950                 8.0872
 Frc consts  --      2.1808                 1.9153                 2.1602
 IR Inten    --     27.4646                25.8620                18.5205

                     46                     47                     48
                      A                      A                      A
 Frequencies --    705.9238               715.7213               726.8675
 Red. masses --      7.2317                 4.9591                 4.2009
 Frc consts  --      2.1233                 1.4967                 1.3077
 IR Inten    --     48.7427                12.5151                13.4357

                     49                     50                     51
                      A                      A                      A
 Frequencies --    778.5928               796.9754               822.1218
 Red. masses --      4.7503                 5.8734                 4.9869
 Frc consts  --      1.6966                 2.1980                 1.9859
 IR Inten    --     11.0715                13.8715               127.7270

                     52                     53                     54
                      A                      A                      A
 Frequencies --    853.0789               862.4775               873.4172
 Red. masses --      2.2251                 1.5411                 5.1244
 Frc consts  --      0.9540                 0.6754                 2.3032
 IR Inten    --     11.5922                26.4533                15.0634

                     55                     56                     57
                      A                      A                      A
 Frequencies --    890.6138               950.5201               956.5163
 Red. masses --      2.3781                 7.0651                 1.3639
 Frc consts  --      1.1114                 3.7609                 0.7352
 IR Inten    --      3.9436                33.3932                 8.7166

                     58                     59                     60
                      A                      A                      A
 Frequencies --    984.2123               991.4347              1092.9276
 Red. masses --      5.0311                 3.2261                 2.4360
 Frc consts  --      2.8714                 1.8683                 1.7144
 IR Inten    --    249.9701               163.7265                 8.8382

                     61                     62                     63
                      A                      A                      A
 Frequencies --   1097.3119              1127.9542              1132.8295
 Red. masses --      3.8899                 1.9731                 2.5249
 Frc consts  --      2.7596                 1.4790                 1.9091
 IR Inten    --     41.6199               160.5666               100.2417

                     64                     65                     66
                      A                      A                      A
 Frequencies --   1140.4820              1144.8321              1152.4043
 Red. masses --      2.2271                 1.9243                 1.4498
 Frc consts  --      1.7067                 1.4860                 1.1344
 IR Inten    --     74.7126                14.4343                 2.1585

                     67                     68                     69
                      A                      A                      A
 Frequencies --   1167.0125              1175.3326              1191.2694
 Red. masses --      3.5942                 6.5874                 3.3654
 Frc consts  --      2.8840                 5.3615                 2.8139
 IR Inten    --    182.0410               133.6003               269.0732

                     70                     71                     72
                      A                      A                      A
 Frequencies --   1202.7623              1232.3842              1241.8513
 Red. masses --      3.0493                 1.7625                 1.4319
 Frc consts  --      2.5990                 1.5771                 1.3010
 IR Inten    --     84.9391                51.0223                12.7299

                     73                     74                     75
                      A                      A                      A
 Frequencies --   1259.0016              1281.7711              1286.3237
 Red. masses --      1.4405                 4.7505                 2.4214
 Frc consts  --      1.3453                 4.5984                 2.3606
 IR Inten    --     34.0454               178.3674                25.7506

                     76                     77                     78
                      A                      A                      A
 Frequencies --   1295.3942              1321.5569              1331.0489
 Red. masses --      2.4612                 1.6707                 2.3946
 Frc consts  --      2.4333                 1.7192                 2.4996
 IR Inten    --    134.2771                45.8787                82.8916

                     79                     80                     81
                      A                      A                      A
 Frequencies --   1336.1805              1345.2316              1371.9914
 Red. masses --      8.4024                 5.8019                 2.5300
 Frc consts  --      8.8386                 6.1860                 2.8059
 IR Inten    --    257.7692                49.1429               200.7038

                     82                     83                     84
                      A                      A                      A
 Frequencies --   1382.4603              1391.4677              1425.5295
 Red. masses --      1.5094                 2.1932                 1.7545
 Frc consts  --      1.6997                 2.5019                 2.1006
 IR Inten    --     60.5019                32.9623                11.5809

                     85                     86                     87
                      A                      A                      A
 Frequencies --   1468.4564              1470.5541              1479.0590
 Red. masses --      1.1464                 1.1712                 1.1183
 Frc consts  --      1.4564                 1.4923                 1.4413
 IR Inten    --     20.0517                 2.0975                 2.5507

                     88                     89                     90
                      A                      A                      A
 Frequencies --   1505.1954              1524.5922              1536.9142
 Red. masses --      2.5179                 1.1043                 2.1684
 Frc consts  --      3.3610                 1.5124                 3.0178
 IR Inten    --     13.1026                21.3929               260.3468

                     91                     92                     93
                      A                      A                      A
 Frequencies --   1537.2796              1644.5225              1669.3677
 Red. masses --      1.0473                 6.1977                 7.6994
 Frc consts  --      1.4583                 9.8755                12.6419
 IR Inten    --     17.9358                73.0353               213.1671

                     94                     95                     96
                      A                      A                      A
 Frequencies --   2955.3248              3046.1795              3125.3671
 Red. masses --      1.0800                 1.0493                 1.0627
 Frc consts  --      5.5577                 5.7370                 6.1159
 IR Inten    --     66.6582                55.9736                 2.0169

                     97                     98                     99
                      A                      A                      A
 Frequencies --   3126.8286              3155.0470              3185.2017
 Red. masses --      1.0604                 1.0871                 1.1063
 Frc consts  --      6.1082                 6.3758                 6.6128
 IR Inten    --      5.1595                18.3070                 0.2050

                    100                    101                    102
                      A                      A                      A
 Frequencies --   3194.0677              3204.4377              3222.1562
 Red. masses --      1.1031                 1.1022                 1.0914
 Frc consts  --      6.6303                 6.6683                 6.6761
 IR Inten    --      1.8263                 1.4743                 5.1761

                    103                    104                    105
                      A                      A                      A
 Frequencies --   3233.1467              3525.7017              3600.1098
 Red. masses --      1.0908                 1.0729                 1.0754
 Frc consts  --      6.7181                 7.8577                 8.2122
 IR Inten    --     17.6950                 7.5865                48.9965

 - Thermochemistry -
 -------------------
 Temperature   298.150 Kelvin.  Pressure   1.00000 Atm.
 Atom     1 has atomic number  6 and mass  12.00000

 Molecular mass:   437.96306 amu.
 Principal axes and moments of inertia in atomic units:
                           1         2         3
     Eigenvalues --  5173.80387********************
           X            0.99999   0.00286  -0.00451
           Y           -0.00292   0.99989  -0.01485
           Z            0.00447   0.01486   0.99988
 This molecule is an asymmetric top.
 Rotational symmetry number  1.
 Warning -- assumption of classical behavior for rotation
           may cause significant error
 Rotational temperatures (Kelvin)      0.01674     0.00340     0.00303
 Rotational constants (GHZ):           0.34882     0.07084     0.06321
 Zero-point vibrational energy     658623.4 (Joules/Mol)
                                  157.41476 (Kcal/Mol)
 Warning -- explicit consideration of  42 degrees of freedom as
           vibrations may cause significant error
 Vibrational temperatures:     17.32    36.76    38.54    65.17    70.66
          (Kelvin)             96.97   110.98   127.29   149.76   174.10
                              184.28   247.48   261.56   264.88   283.26
                              322.81   339.83   357.42   367.62   397.85
                              422.15   443.01   475.07   500.70   516.57
                              522.75   550.61   575.98   591.64   610.97
                              660.51   685.54   722.64   736.62   747.09
                              749.69   766.23   768.79   778.23   808.02
                              835.45   880.58   924.20   947.54   968.76
                             1015.67  1029.76  1045.80  1120.22  1146.67
                             1182.85  1227.39  1240.91  1256.65  1281.39
                             1367.59  1376.21  1416.06  1426.45  1572.48
                             1578.79  1622.87  1629.89  1640.90  1647.16
                             1658.05  1679.07  1691.04  1713.97  1730.51
                             1773.13  1786.75  1811.42  1844.18  1850.73
                             1863.78  1901.43  1915.08  1922.47  1935.49
                             1973.99  1989.05  2002.01  2051.02  2112.78
                             2115.80  2128.04  2165.64  2193.55  2211.28
                             2211.80  2366.10  2401.85  4252.05  4382.77
                             4496.71  4498.81  4539.41  4582.79  4595.55
                             4610.47  4635.96  4651.78  5072.70  5179.75

 Zero-point correction=                           0.250856 (Hartree/Particle)
 Thermal correction to Energy=                    0.275028
 Thermal correction to Enthalpy=                  0.275972
 Thermal correction to Gibbs Free Energy=         0.193910
 Sum of electronic and zero-point Energies=          -2844.972342
 Sum of electronic and thermal Energies=             -2844.948170
 Sum of electronic and thermal Enthalpies=           -2844.947226
 Sum of electronic and thermal Free Energies=        -2845.029288

                     E (Thermal)             CV                S
                      KCal/Mol        Cal/Mol-Kelvin    Cal/Mol-Kelvin
 Total                  172.583             89.692            172.714
 Electronic               0.000              0.000              0.000
 Translational            0.889              2.981             44.121
 Rotational               0.889              2.981             36.574
 Vibrational            170.805             83.731             92.020
 Vibration     1          0.593              1.987              7.642
 Vibration     2          0.593              1.985              6.148
 Vibration     3          0.593              1.984              6.054
 Vibration     4          0.595              1.979              5.013
 Vibration     5          0.595              1.978              4.853
 Vibration     6          0.598              1.970              4.228
 Vibration     7          0.599              1.964              3.962
 Vibration     8          0.601              1.957              3.694
 Vibration     9          0.605              1.946              3.376
 Vibration    10          0.609              1.932              3.084
 Vibration    11          0.611              1.925              2.975
 Vibration    12          0.626              1.877              2.413
 Vibration    13          0.630              1.865              2.310
 Vibration    14          0.631              1.862              2.286
 Vibration    15          0.636              1.844              2.162
 Vibration    16          0.649              1.804              1.924
 Vibration    17          0.655              1.785              1.831
 Vibration    18          0.662              1.765              1.742
 Vibration    19          0.666              1.753              1.692
 Vibration    20          0.678              1.717              1.555
 Vibration    21          0.688              1.686              1.454
 Vibration    22          0.698              1.659              1.374
 Vibration    23          0.713              1.615              1.259
 Vibration    24          0.726              1.579              1.175
 Vibration    25          0.734              1.557              1.126
 Vibration    26          0.737              1.548              1.108
 Vibration    27          0.752              1.507              1.028
 Vibration    28          0.766              1.469              0.961
 Vibration    29          0.775              1.446              0.922
 Vibration    30          0.787              1.417              0.876
 Vibration    31          0.817              1.341              0.769
 Vibration    32          0.833              1.302              0.720
 Vibration    33          0.858              1.245              0.652
 Vibration    34          0.867              1.223              0.629
 Vibration    35          0.874              1.207              0.612
 Vibration    36          0.876              1.203              0.608
 Vibration    37          0.888              1.178              0.582
 Vibration    38          0.889              1.174              0.578
 Vibration    39          0.896              1.160              0.563
 Vibration    40          0.917              1.114              0.521
 Vibration    41          0.937              1.073              0.484
 Vibration    42          0.971              1.006              0.429

                           ! Non-Optimized Parameters !
 Normal termination of Gaussian 16 at Fri Jul  1 23:34:01 2022.
