 Gaussian 16, Revision C.01,
 Gaussian 16:  ES64L-G16RevC.01  3-Jul-2019

 --------------------------------------------------
 #M062X/gen 6D INT(grid=ultrafine) OPT Freq=noraman
 --------------------------------------------------

 ---------
 A.36.freq
 ---------
 Symbolic Z-matrix:
 Charge = -1 Multiplicity = 1

 SCF Done:  E(RM062X) =  -1807.89673040     A.U. after   18 cycles
 SCF Done:  E(RM062X) =  -1807.89903716     A.U. after   16 cycles
 SCF Done:  E(RM062X) =  -1807.89982626     A.U. after   16 cycles
 SCF Done:  E(RM062X) =  -1807.89997580     A.U. after   16 cycles
 SCF Done:  E(RM062X) =  -1807.90003169     A.U. after   16 cycles
 SCF Done:  E(RM062X) =  -1807.90005000     A.U. after   14 cycles
 SCF Done:  E(RM062X) =  -1807.90006298     A.U. after   14 cycles
 SCF Done:  E(RM062X) =  -1807.90008173     A.U. after   14 cycles
 SCF Done:  E(RM062X) =  -1807.90008496     A.U. after   14 cycles
 SCF Done:  E(RM062X) =  -1807.90009086     A.U. after   14 cycles
 SCF Done:  E(RM062X) =  -1807.90009616     A.U. after   14 cycles
 SCF Done:  E(RM062X) =  -1807.90009957     A.U. after   14 cycles
 SCF Done:  E(RM062X) =  -1807.90009974     A.U. after   14 cycles
 SCF Done:  E(RM062X) =  -1807.90010013     A.U. after   12 cycles
 SCF Done:  E(RM062X) =  -1807.90010014     A.U. after   12 cycles
 SCF Done:  E(RM062X) =  -1807.90010011     A.U. after   11 cycles
 Optimization completed.
    -- Stationary point found.
 Normal termination of Gaussian 16 at Sat Jul  2 11:48:17 2022.

 ------------------------------------------------------------------
 #N Geom=AllCheck Guess=TCheck SCRF=Check GenChk RM062X/ChkBas Freq
 ------------------------------------------------------------------

 Structure from the checkpoint file:  "/jobfs/50064224.gadi-pbs/Gau-1915027.chk"
 ---------
 A.36.freq
 ---------
 Charge = -1 Multiplicity = 1

                         Standard orientation:
 ---------------------------------------------------------------------
 Center     Atomic      Atomic             Coordinates (Angstroms)
 Number     Number       Type             X           Y           Z
 ---------------------------------------------------------------------
      1          6           0        2.022975    0.114728    0.163005
      2          6           0        2.130906    1.280156   -0.595450
      3         17           0        3.636902    1.742758   -1.353605
      4          6           0        1.038967    2.122537   -0.792196
      5          1           0        1.159492    3.021581   -1.388829
      6          6           0       -0.194520    1.801608   -0.234524
      7          6           0       -0.322848    0.647297    0.537772
      8          6           0        0.783738   -0.179776    0.731465
      9         16           0        3.397484   -1.096155    0.402768
     10          8           0        4.438508   -0.259267    1.038370
     11          8           0        2.747788   -2.104643    1.259038
     12          7           0        3.750299   -1.694022   -0.992927
     13          1           0        4.406800   -1.045468   -1.430564
     14          1           0        0.714421   -1.078547    1.336161
     15          6           0       -1.677884    0.215335    1.071276
     16          7           0       -2.611570    1.321954    1.256442
     17          6           0       -2.444571   -0.624445    0.052145
     18          6           0       -3.757044    1.263003    0.506776
     19          6           0       -3.651544   -0.014820   -0.263218
     20          8           0       -4.657745    2.082735    0.483461
     21          6           0       -2.075746   -1.831718   -0.525075
     22          6           0       -2.968081   -2.411200   -1.430045
     23          6           0       -4.185510   -1.795124   -1.748257
     24          6           0       -4.543091   -0.579098   -1.165594
     25          8           0       -1.463095   -0.482088    2.276391
     26          1           0       -1.049802    2.449124   -0.408886
     27          1           0       -2.387638    2.120414    1.836068
     28          1           0       -1.120636   -2.296655   -0.293602
     29          1           0       -2.707145   -3.352661   -1.904812
     30          1           0       -4.852853   -2.269498   -2.462129
     31          1           0       -5.478410   -0.079705   -1.401508
     32          1           0       -2.300529   -0.897311    2.533926
 ---------------------------------------------------------------------

 SCF Done:  E(RM062X) =  -1807.90010011     A.U. after    2 cycles

 The electronic state is 1-A.
 Alpha  occ. eigenvalues -- -102.56411 -89.98260 -19.58821 -19.55470 -19.46241
 Alpha  occ. eigenvalues --  -19.46121 -14.72037 -14.56686 -10.59544 -10.58840
 Alpha  occ. eigenvalues --  -10.51641 -10.50509 -10.50342 -10.50339 -10.50262
 Alpha  occ. eigenvalues --  -10.50000 -10.49811 -10.47714 -10.47195 -10.47104
 Alpha  occ. eigenvalues --  -10.46205 -10.45548  -9.71047  -8.29041  -7.43450
 Alpha  occ. eigenvalues --   -7.42801  -7.42769  -6.21256  -6.21227  -6.21129
 Alpha  occ. eigenvalues --   -1.11117  -1.09320  -1.05565  -0.98200  -0.93954
 Alpha  occ. eigenvalues --   -0.90617  -0.89535  -0.84360  -0.80904  -0.80391
 Alpha  occ. eigenvalues --   -0.79710  -0.75849  -0.75561  -0.69044  -0.67248
 Alpha  occ. eigenvalues --   -0.62521  -0.61760  -0.59294  -0.58125  -0.55754
 Alpha  occ. eigenvalues --   -0.52675  -0.51751  -0.50452  -0.49675  -0.47406
 Alpha  occ. eigenvalues --   -0.45235  -0.44756  -0.44307  -0.43892  -0.43541
 Alpha  occ. eigenvalues --   -0.42391  -0.41333  -0.40806  -0.39698  -0.38441
 Alpha  occ. eigenvalues --   -0.37836  -0.36515  -0.36306  -0.36067  -0.35386
 Alpha  occ. eigenvalues --   -0.33758  -0.32571  -0.31018  -0.29355  -0.28159
 Alpha  occ. eigenvalues --   -0.26671  -0.26392  -0.25653  -0.25180  -0.24673
 Alpha  occ. eigenvalues --   -0.23321  -0.22395  -0.21623  -0.19804  -0.19031
 Alpha  occ. eigenvalues --   -0.16948  -0.14270
 Alpha virt. eigenvalues --    0.05091   0.07090   0.07718   0.08568   0.09573
 Alpha virt. eigenvalues --    0.09946   0.10515   0.11103   0.11315   0.11572
 Alpha virt. eigenvalues --    0.12217   0.12567   0.13522   0.14228   0.14755

 Mulliken charges:
               1
     1  C   -2.394251
     2  C    1.348947
     3  Cl   0.196547
     4  C   -0.445810
     5  H    0.210165
     6  C   -0.152777
     7  C   -0.232763
     8  C   -0.529476
     9  S    1.426839
    10  O   -0.511226
    11  O   -0.645110
    12  N   -0.710785
    13  H    0.349378
    14  H    0.295371
    15  C    1.166042
    16  N   -0.716747
    17  C   -0.772441
    18  C    0.737171
    19  C    0.498600
    20  O   -0.518725
    21  C   -0.031319
    22  C   -0.354700
    23  C    0.110487
    24  C   -0.906304
    25  O   -0.511450
    26  H    0.220414
    27  H    0.469208
    28  H    0.270660
    29  H    0.212482
    30  H    0.200487
    31  H    0.232752
    32  H    0.488334
 Sum of Mulliken charges =  -1.00000

 Dipole moment (field-independent basis, Debye):
    X=            -13.3838    Y=              2.9605    Z=             -2.4071  Tot=             13.9171
 Quadrupole moment (field-independent basis, Debye-Ang):
   XX=           -226.0527   YY=           -160.3389   ZZ=           -150.7621
   XY=             34.6440   XZ=             -6.3624   YZ=              3.0604

  Exact polarizability:     284.421     -12.649     215.269       3.001       6.005     173.551
 Approx polarizability:     319.104     -22.933     283.221       2.757       1.327     236.264

                      1                      2                      3
                      A                      A                      A
 Frequencies --     18.0059                32.1673                38.8207
 Red. masses --      8.7437                 7.3987                 8.0649
 Frc consts  --      0.0017                 0.0045                 0.0072
 IR Inten    --      5.0461                 0.7259                 2.4890

                      4                      5                      6
                      A                      A                      A
 Frequencies --     55.5719               103.9482               120.1788
 Red. masses --      9.6111                 5.8413                 9.2691
 Frc consts  --      0.0175                 0.0372                 0.0789
 IR Inten    --      0.3401                 0.7936                 2.3170

                      7                      8                      9
                      A                      A                      A
 Frequencies --    126.3150               141.8204               172.8773
 Red. masses --      6.6936                 5.7619                14.3912
 Frc consts  --      0.0629                 0.0683                 0.2534
 IR Inten    --      0.6593                 0.1070                 0.6996

                     10                     11                     12
                      A                      A                      A
 Frequencies --    188.1965               238.9555               251.3590
 Red. masses --      5.7516                 8.2467                 6.5214
 Frc consts  --      0.1200                 0.2774                 0.2428
 IR Inten    --      0.3864                 0.2832                 0.9492

                     13                     14                     15
                      A                      A                      A
 Frequencies --    267.0606               276.8342               301.8159
 Red. masses --      6.7676                 8.3548                 6.6994
 Frc consts  --      0.2844                 0.3772                 0.3596
 IR Inten    --      6.5311                 2.3490                 1.5953

                     16                     17                     18
                      A                      A                      A
 Frequencies --    320.2795               347.8172               354.5596
 Red. masses --      2.4265                 4.4623                 1.6654
 Frc consts  --      0.1467                 0.3181                 0.1234
 IR Inten    --     12.7448                19.1904                59.3474

                     19                     20                     21
                      A                      A                      A
 Frequencies --    372.8123               406.0908               427.9013
 Red. masses --      4.3238                 3.5253                 3.0078
 Frc consts  --      0.3541                 0.3425                 0.3245
 IR Inten    --     13.6050                11.6673                 9.6263

                     22                     23                     24
                      A                      A                      A
 Frequencies --    450.7725               469.7896               497.5229
 Red. masses --      3.8667                 4.1889                 2.0699
 Frc consts  --      0.4629                 0.5447                 0.3019
 IR Inten    --      5.3915                 7.1566               110.5412

                     25                     26                     27
                      A                      A                      A
 Frequencies --    500.6194               510.5278               522.2406
 Red. masses --      1.5956                 2.6998                 4.4181
 Frc consts  --      0.2356                 0.4146                 0.7099
 IR Inten    --     39.3692                71.4218                 2.9425

                     28                     29                     30
                      A                      A                      A
 Frequencies --    541.8910               552.0838               572.7877
 Red. masses --      7.0091                 8.2753                 5.4820
 Frc consts  --      1.2127                 1.4861                 1.0597
 IR Inten    --      9.1732                18.7414                35.0850

                     31                     32                     33
                      A                      A                      A
 Frequencies --    592.4465               611.0958               630.2520
 Red. masses --     14.4246                 7.0542                 4.7967
 Frc consts  --      2.9830                 1.5521                 1.1226
 IR Inten    --    178.1471                 9.2605                 0.1874

                     34                     35                     36
                      A                      A                      A
 Frequencies --    675.7072               688.8527               707.8114
 Red. masses --      5.3625                 7.5234                 4.1746
 Frc consts  --      1.4426                 2.1034                 1.2323
 IR Inten    --      1.5087                16.1190                32.0100

                     37                     38                     39
                      A                      A                      A
 Frequencies --    741.3047               744.9399               775.5699
 Red. masses --      5.3730                 4.3185                 4.3434
 Frc consts  --      1.7396                 1.4120                 1.5393
 IR Inten    --      0.6695                30.7687                15.8105

                     40                     41                     42
                      A                      A                      A
 Frequencies --    793.9119               812.4739               817.9492
 Red. masses --      1.9889                 3.3409                 3.8574
 Frc consts  --      0.7386                 1.2994                 1.5206
 IR Inten    --     18.3450                 4.6528                 9.3219

                     43                     44                     45
                      A                      A                      A
 Frequencies --    845.7073               915.3050               952.8787
 Red. masses --      1.5331                 1.3966                 4.1011
 Frc consts  --      0.6460                 0.6894                 2.1939
 IR Inten    --     29.4107                 1.3493                55.7996

                     46                     47                     48
                      A                      A                      A
 Frequencies --    967.2169               975.4378               980.5788
 Red. masses --      1.8797                 3.1413                 1.3745
 Frc consts  --      1.0360                 1.7610                 0.7787
 IR Inten    --     53.4097               111.8087                11.3400

                     49                     50                     51
                      A                      A                      A
 Frequencies --    992.1421              1024.5159              1051.3373
 Red. masses --      1.4129                 1.3120                 2.1288
 Frc consts  --      0.8194                 0.8113                 1.3864
 IR Inten    --      1.2981                 0.1897                 5.6988

                     52                     53                     54
                      A                      A                      A
 Frequencies --   1052.8948              1081.6469              1109.4365
 Red. masses --      5.9596                 3.5611                 2.7795
 Frc consts  --      3.8926                 2.4547                 2.0157
 IR Inten    --    133.3799                20.9843                75.6496

                     55                     56                     57
                      A                      A                      A
 Frequencies --   1120.9009              1136.9615              1146.4591
 Red. masses --      1.8814                 2.2948                 2.8959
 Frc consts  --      1.3927                 1.7478                 2.2426
 IR Inten    --    172.1989                68.7323                33.0068

                     58                     59                     60
                      A                      A                      A
 Frequencies --   1165.8216              1175.9863              1180.6353
 Red. masses --      3.6953                 1.4209                 1.3251
 Frc consts  --      2.9592                 1.1578                 1.0883
 IR Inten    --    154.4401                12.5955                 7.2384

                     61                     62                     63
                      A                      A                      A
 Frequencies --   1186.9283              1219.8728              1241.9847
 Red. masses --      1.6708                 2.0595                 3.3976
 Frc consts  --      1.3868                 1.8057                 3.0879
 IR Inten    --      3.1501                64.9705                41.4215

                     64                     65                     66
                      A                      A                      A
 Frequencies --   1272.3554              1287.9621              1308.9314
 Red. masses --      4.7049                 1.4671                 1.8644
 Frc consts  --      4.4876                 1.4339                 1.8821
 IR Inten    --    206.7592                23.2642                30.8464

                     67                     68                     69
                      A                      A                      A
 Frequencies --   1331.7352              1337.7606              1366.2749
 Red. masses --      6.5253                 2.8763                 2.1635
 Frc consts  --      6.8184                 3.0328                 2.3795
 IR Inten    --     27.9308                66.9626                 2.4656

                     70                     71                     72
                      A                      A                      A
 Frequencies --   1384.3170              1427.1030              1443.7354
 Red. masses --      4.8903                 3.0175                 2.5919
 Frc consts  --      5.5215                 3.6208                 3.1831
 IR Inten    --     22.7533               109.8495               147.8927

                     73                     74                     75
                      A                      A                      A
 Frequencies --   1512.1870              1520.6941              1525.2690
 Red. masses --      2.9235                 2.7301                 2.8496
 Frc consts  --      3.9388                 3.7197                 3.9059
 IR Inten    --     41.9170                15.9495                11.8423

                     76                     77                     78
                      A                      A                      A
 Frequencies --   1645.7545              1668.6602              1684.8762
 Red. masses --      7.7728                 6.4569                 7.5683
 Frc consts  --     12.4040                10.5928                12.6585
 IR Inten    --      1.2413                13.2724                 1.3164

                     79                     80                     81
                      A                      A                      A
 Frequencies --   1698.5051              1841.5939              3215.8187
 Red. masses --      7.2808                11.1331                 1.0866
 Frc consts  --     12.3755                22.2461                 6.6204
 IR Inten    --     18.5453               729.5292                 3.2853

                     82                     83                     84
                      A                      A                      A
 Frequencies --   3216.8892              3226.4409              3235.3067
 Red. masses --      1.0881                 1.0908                 1.0945
 Frc consts  --      6.6341                 6.6902                 6.7500
 IR Inten    --      3.7664                 4.6607                 4.4757

                     85                     86                     87
                      A                      A                      A
 Frequencies --   3237.0689              3241.1440              3256.3346
 Red. masses --      1.0946                 1.0975                 1.0897
 Frc consts  --      6.7578                 6.7931                 6.8076
 IR Inten    --     10.4874                20.8110                11.9279

                     88                     89                     90
                      A                      A                      A
 Frequencies --   3518.9784              3661.0999              3795.9908
 Red. masses --      1.0729                 1.0791                 1.0662
 Frc consts  --      7.8282                 8.5222                 9.0521
 IR Inten    --      6.2921                61.9376                26.2207

 - Thermochemistry -
 -------------------
 Temperature   298.150 Kelvin.  Pressure   1.00000 Atm.
 Atom     1 has atomic number  6 and mass  12.00000

 Molecular mass:   337.00498 amu.
 Principal axes and moments of inertia in atomic units:
                           1         2         3
     Eigenvalues --  3847.62504********************
           X            0.99998   0.00357   0.00481
           Y           -0.00375   0.99931   0.03686
           Z           -0.00467  -0.03688   0.99931
 This molecule is an asymmetric top.
 Rotational symmetry number  1.
 Warning -- assumption of classical behavior for rotation
           may cause significant error
 Rotational temperatures (Kelvin)      0.02251     0.00675     0.00621
 Rotational constants (GHZ):           0.46905     0.14057     0.12935
 Zero-point vibrational energy     593116.7 (Joules/Mol)
                                  141.75830 (Kcal/Mol)
 Warning -- explicit consideration of  32 degrees of freedom as
           vibrations may cause significant error
 Vibrational temperatures:     25.91    46.28    55.85    79.96   149.56
          (Kelvin)            172.91   181.74   204.05   248.73   270.77
                              343.80   361.65   384.24   398.30   434.25
                              460.81   500.43   510.13   536.39   584.27
                              615.65   648.56   675.92   715.82   720.28
                              734.54   751.39   779.66   794.33   824.11
                              852.40   879.23   906.79   972.19   991.11
                             1018.38  1066.57  1071.80  1115.87  1142.26
                             1168.97  1176.85  1216.78  1316.92  1370.98
                             1391.61  1403.44  1410.83  1427.47  1474.05
                             1512.64  1514.88  1556.25  1596.23  1612.73
                             1635.83  1649.50  1677.36  1691.98  1698.67
                             1707.73  1755.12  1786.94  1830.64  1853.09
                             1883.26  1916.07  1924.74  1965.76  1991.72
                             2053.28  2077.21  2175.70  2187.94  2194.52
                             2367.87  2400.83  2424.16  2443.77  2649.64
                             4626.85  4628.39  4642.13  4654.88  4657.42
                             4663.28  4685.14  5063.03  5267.51  5461.58

 Zero-point correction=                           0.225906 (Hartree/Particle)
 Thermal correction to Energy=                    0.244509
 Thermal correction to Enthalpy=                  0.245453
 Thermal correction to Gibbs Free Energy=         0.177339
 Sum of electronic and zero-point Energies=          -1807.674194
 Sum of electronic and thermal Energies=             -1807.655591
 Sum of electronic and thermal Enthalpies=           -1807.654647
 Sum of electronic and thermal Free Energies=        -1807.722761

                     E (Thermal)             CV                S
                      KCal/Mol        Cal/Mol-Kelvin    Cal/Mol-Kelvin
 Total                  153.432             72.034            143.358
 Electronic               0.000              0.000              0.000
 Translational            0.889              2.981             43.339
 Rotational               0.889              2.981             34.887
 Vibrational            151.654             66.072             65.131
 Vibration     1          0.593              1.986              6.843
 Vibration     2          0.594              1.983              5.691
 Vibration     3          0.594              1.981              5.318
 Vibration     4          0.596              1.975              4.609
 Vibration     5          0.605              1.946              3.379
 Vibration     6          0.609              1.932              3.097
 Vibration     7          0.611              1.927              3.001
 Vibration     8          0.615              1.911              2.779
 Vibration     9          0.626              1.876              2.404
 Vibration    10          0.633              1.856              2.246
 Vibration    11          0.657              1.781              1.811
 Vibration    12          0.663              1.760              1.721
 Vibration    13          0.672              1.734              1.615
 Vibration    14          0.678              1.716              1.553
 Vibration    15          0.694              1.670              1.407
 Vibration    16          0.706              1.635              1.309
 Vibration    17          0.725              1.580              1.176
 Vibration    18          0.730              1.566              1.146
 Vibration    19          0.744              1.528              1.068
 Vibration    20          0.771              1.457              0.941
 Vibration    21          0.789              1.410              0.866
 Vibration    22          0.810              1.359              0.793
 Vibration    23          0.827              1.317              0.738
 Vibration    24          0.853              1.256              0.664
 Vibration    25          0.856              1.249              0.657
 Vibration    26          0.866              1.227              0.632
 Vibration    27          0.877              1.201              0.605
 Vibration    28          0.897              1.157              0.561
 Vibration    29          0.907              1.135              0.540
 Vibration    30          0.929              1.090              0.499
 Vibration    31          0.950              1.048              0.463
 Vibration    32          0.970              1.008              0.431

 Optimization completed.
    -- Stationary point found.
 Normal termination of Gaussian 16 at Sat Jul  2 12:08:02 2022.
