 Gaussian 16, Revision C.01,
 Gaussian 16:  ES64L-G16RevC.01  3-Jul-2019

 --------------------------------------------------
 #M062X/gen 6D INT(grid=ultrafine) OPT Freq=noraman
 --------------------------------------------------

 ---------
 A.37.freq
 ---------
 Symbolic Z-matrix:
 Charge = -1 Multiplicity = 1

 SCF Done:  E(RM062X) =  -1866.58637824     A.U. after   18 cycles
 SCF Done:  E(RM062X) =  -1866.58937146     A.U. after   15 cycles
 SCF Done:  E(RM062X) =  -1866.59034279     A.U. after   16 cycles
 SCF Done:  E(RM062X) =  -1866.59047458     A.U. after   14 cycles
 SCF Done:  E(RM062X) =  -1866.59062999     A.U. after   15 cycles
 SCF Done:  E(RM062X) =  -1866.59070216     A.U. after   15 cycles
 SCF Done:  E(RM062X) =  -1866.59071219     A.U. after   15 cycles
 SCF Done:  E(RM062X) =  -1866.59070813     A.U. after   13 cycles
 SCF Done:  E(RM062X) =  -1866.59070782     A.U. after   15 cycles
 SCF Done:  E(RM062X) =  -1866.59071570     A.U. after   15 cycles
 SCF Done:  E(RM062X) =  -1866.59072260     A.U. after   14 cycles
 SCF Done:  E(RM062X) =  -1866.59072045     A.U. after   14 cycles
 SCF Done:  E(RM062X) =  -1866.59072338     A.U. after   12 cycles
 SCF Done:  E(RM062X) =  -1866.59071968     A.U. after   14 cycles
 SCF Done:  E(RM062X) =  -1866.59072039     A.U. after   11 cycles
 SCF Done:  E(RM062X) =  -1866.59072359     A.U. after   13 cycles
 SCF Done:  E(RM062X) =  -1866.59072386     A.U. after   11 cycles
 SCF Done:  E(RM062X) =  -1866.59072390     A.U. after   11 cycles
 SCF Done:  E(RM062X) =  -1866.59072383     A.U. after   12 cycles
 Optimization completed.
    -- Stationary point found.
 Normal termination of Gaussian 16 at Sat Jul  2 18:12:20 2022.

 ------------------------------------------------------------------
 #N Geom=AllCheck Guess=TCheck SCRF=Check GenChk RM062X/ChkBas Freq
 ------------------------------------------------------------------

 Structure from the checkpoint file:  "/jobfs/50086565.gadi-pbs/Gau-764647.chk"
 ---------
 A.37.freq
 ---------
 Charge = -1 Multiplicity = 1

                         Standard orientation:
 ---------------------------------------------------------------------
 Center     Atomic      Atomic             Coordinates (Angstroms)
 Number     Number       Type             X           Y           Z
 ---------------------------------------------------------------------
      1          6           0       -2.831253    0.024445   -0.040101
      2          6           0       -3.366237   -1.208660   -0.407939
      3         17           0       -5.086702   -1.429166   -0.603599
      4          6           0       -2.551490   -2.317695   -0.642971
      5          1           0       -3.007137   -3.260434   -0.929761
      6          6           0       -1.174970   -2.205127   -0.506742
      7          6           0       -0.612724   -0.981050   -0.135190
      8          6           0       -1.446448    0.118070    0.082713
      9         16           0       -3.828616    1.549851    0.270555
     10          8           0       -4.725033    1.101462    1.358093
     11          8           0       -2.768113    2.504602    0.646050
     12          7           0       -4.512551    1.968390   -1.063231
     13          1           0       -5.377763    1.429743   -1.129477
     14          1           0       -1.075443    1.106094    0.341118
     15          1           0       -0.521742   -3.053464   -0.684863
     16          6           0        0.874700   -0.930721    0.013775
     17          7           0        1.378651    0.192214    0.628796
     18          8           0        1.614461   -1.825609   -0.369611
     19          7           0        2.730388    0.376550    0.834287
     20          6           0        3.400976   -0.541118    1.788208
     21          6           0        4.890684   -0.289372    1.483195
     22          6           0        4.866248    0.133815    0.031725
     23          6           0        3.558538    0.504495   -0.295947
     24          6           0        2.980938   -0.259155    3.218151
     25          6           0        3.220058    0.960192   -1.562479
     26          6           0        4.241133    1.046538   -2.513017
     27          6           0        5.553327    0.689549   -2.202021
     28          6           0        5.870177    0.229688   -0.916871
     29          1           0        0.772109    0.905879    1.006405
     30          1           0        3.142950   -1.571815    1.507469
     31          1           0        5.504511   -1.174566    1.673559
     32          1           0        5.267805    0.528724    2.114494
     33          1           0        1.902235   -0.399577    3.342125
     34          1           0        3.231942    0.770811    3.493884
     35          1           0        3.490588   -0.942661    3.905905
     36          1           0        2.194312    1.222114   -1.804459
     37          1           0        4.001423    1.390588   -3.515331
     38          1           0        6.328251    0.758670   -2.959695
     39          1           0        6.889883   -0.058975   -0.671225
 ---------------------------------------------------------------------

 SCF Done:  E(RM062X) =  -1866.59072383     A.U. after    1 cycles

 The electronic state is 1-A.
 Alpha  occ. eigenvalues -- -102.57049 -89.98915 -19.54059 -19.46956 -19.46737
 Alpha  occ. eigenvalues --  -14.74125 -14.73728 -14.57246 -10.58295 -10.52504
 Alpha  occ. eigenvalues --  -10.51720 -10.51381 -10.49153 -10.48708 -10.48467
 Alpha  occ. eigenvalues --  -10.48411 -10.47931 -10.47911 -10.47771 -10.47563
 Alpha  occ. eigenvalues --  -10.47546 -10.47391 -10.46994 -10.46811  -9.71688
 Alpha  occ. eigenvalues --   -8.29697  -7.44090  -7.43443  -7.43407  -6.21912
 Alpha  occ. eigenvalues --   -6.21882  -6.21782  -1.10236  -1.06227  -1.04247
 Alpha  occ. eigenvalues --   -0.94603  -0.92508  -0.90153  -0.86971  -0.84658
 Alpha  occ. eigenvalues --   -0.81567  -0.81023  -0.78334  -0.76408  -0.76004
 Alpha  occ. eigenvalues --   -0.73699  -0.70724  -0.65270  -0.61886  -0.61646
 Alpha  occ. eigenvalues --   -0.60682  -0.59750  -0.58270  -0.56057  -0.53309
 Alpha  occ. eigenvalues --   -0.51067  -0.50093  -0.48260  -0.46367  -0.45388
 Alpha  occ. eigenvalues --   -0.44955  -0.44491  -0.43577  -0.43284  -0.42371
 Alpha  occ. eigenvalues --   -0.41876  -0.41064  -0.40503  -0.40226  -0.40136
 Alpha  occ. eigenvalues --   -0.37871  -0.37554  -0.36875  -0.36662  -0.35706
 Alpha  occ. eigenvalues --   -0.35446  -0.34902  -0.33545  -0.33104  -0.32425
 Alpha  occ. eigenvalues --   -0.30007  -0.29158  -0.28709  -0.26532  -0.26057
 Alpha  occ. eigenvalues --   -0.25569  -0.23925  -0.23143  -0.23000  -0.22381
 Alpha  occ. eigenvalues --   -0.20679  -0.19760  -0.18308  -0.17537  -0.14854
 Alpha virt. eigenvalues --    0.07319   0.07638   0.08355   0.08535   0.09425
 Alpha virt. eigenvalues --    0.10110   0.10396   0.10547   0.10820   0.10915
 Alpha virt. eigenvalues --    0.11140   0.11846   0.12174   0.13068   0.13358

 Mulliken charges:
               1
     1  C   -2.170441
     2  C    1.378155
     3  Cl   0.200597
     4  C   -0.344063
     5  H    0.211762
     6  C   -0.472290
     7  C    0.294278
     8  C   -0.259409
     9  S    1.363204
    10  O   -0.536559
    11  O   -0.662711
    12  N   -0.715837
    13  H    0.349408
    14  H    0.248646
    15  H    0.235691
    16  C   -0.068891
    17  N   -0.451333
    18  O   -0.397347
    19  N    0.094190
    20  C    0.074071
    21  C   -0.714838
    22  C    1.583253
    23  C   -1.054290
    24  C   -0.732155
    25  C    0.142748
    26  C   -0.519433
    27  C    0.026900
    28  C   -0.767713
    29  H    0.461292
    30  H    0.264242
    31  H    0.227871
    32  H    0.228476
    33  H    0.235924
    34  H    0.225642
    35  H    0.211829
    36  H    0.233514
    37  H    0.195887
    38  H    0.186651
    39  H    0.193081
 Sum of Mulliken charges =  -1.00000

 Dipole moment (field-independent basis, Debye):
    X=             14.3870    Y=             -6.6959    Z=              0.7179  Tot=             15.8851
 Quadrupole moment (field-independent basis, Debye-Ang):
   XX=           -237.5756   YY=           -184.7931   ZZ=           -164.3981
   XY=             30.5580   XZ=             13.2123   YZ=             -2.9248

  Exact polarizability:     339.105      -5.581     215.215      -1.920      -4.667     219.754
 Approx polarizability:     369.531     -12.152     286.144       1.163       0.413     278.915

                      1                      2                      3
                      A                      A                      A
 Frequencies --      5.2654                17.0258                45.0567
 Red. masses --      6.4760                 6.4638                 5.5836
 Frc consts  --      0.0001                 0.0011                 0.0067
 IR Inten    --      3.8523                 0.0869                 1.0067

                      4                      5                      6
                      A                      A                      A
 Frequencies --     49.0664                68.7419                76.3810
 Red. masses --      7.1612                 8.2613                 3.8488
 Frc consts  --      0.0102                 0.0230                 0.0132
 IR Inten    --      0.7550                 2.0518                 2.5584

                      7                      8                      9
                      A                      A                      A
 Frequencies --     97.1442               111.8882               119.1113
 Red. masses --      5.5904                 5.4103                 8.4291
 Frc consts  --      0.0311                 0.0399                 0.0705
 IR Inten    --      2.7386                 3.3777                 3.1607

                     10                     11                     12
                      A                      A                      A
 Frequencies --    159.7360               173.5322               209.9908
 Red. masses --      9.5531                 4.3117                 5.0140
 Frc consts  --      0.1436                 0.0765                 0.1303
 IR Inten    --      0.7482                 1.5310                 1.8114

                     13                     14                     15
                      A                      A                      A
 Frequencies --    227.8612               239.0294               250.3778
 Red. masses --      5.1535                 1.4687                 2.5577
 Frc consts  --      0.1576                 0.0494                 0.0945
 IR Inten    --      1.7019                 0.7048                 3.8245

                     16                     17                     18
                      A                      A                      A
 Frequencies --    263.8773               269.7004               302.9720
 Red. masses --      6.2315                 3.4558                 4.7836
 Frc consts  --      0.2557                 0.1481                 0.2587
 IR Inten    --      4.4579                 0.5594                 1.5925

                     19                     20                     21
                      A                      A                      A
 Frequencies --    307.0431               327.7107               359.3445
 Red. masses --      8.9769                 5.5754                 4.3266
 Frc consts  --      0.4986                 0.3528                 0.3292
 IR Inten    --      4.3399                10.5770                12.2084

                     22                     23                     24
                      A                      A                      A
 Frequencies --    378.0670               413.1175               422.5474
 Red. masses --      3.3492                 1.9084                 3.6439
 Frc consts  --      0.2820                 0.1919                 0.3833
 IR Inten    --     30.9384                24.0041                 9.4795

                     25                     26                     27
                      A                      A                      A
 Frequencies --    428.7838               455.3678               458.0670
 Red. masses --      2.8922                 2.9241                 3.1016
 Frc consts  --      0.3133                 0.3572                 0.3834
 IR Inten    --      4.2674                 9.1363                23.3800

                     28                     29                     30
                      A                      A                      A
 Frequencies --    472.6042               503.1204               511.4886
 Red. masses --      4.0772                 4.1321                 2.8656
 Frc consts  --      0.5365                 0.6163                 0.4417
 IR Inten    --     21.3984                28.4752                33.0837

                     31                     32                     33
                      A                      A                      A
 Frequencies --    515.9910               540.3613               572.3067
 Red. masses --      2.0152                 3.3487                 5.6156
 Frc consts  --      0.3161                 0.5761                 1.0837
 IR Inten    --     61.5089                 3.5893                 9.9907

                     34                     35                     36
                      A                      A                      A
 Frequencies --    587.2696               594.7383               597.8542
 Red. masses --      7.9141                 8.4421                 6.7143
 Frc consts  --      1.6082                 1.7594                 1.4140
 IR Inten    --     77.7784                77.7238                31.5062

                     37                     38                     39
                      A                      A                      A
 Frequencies --    612.2984               636.5836               687.7590
 Red. masses --      4.3072                 5.2985                 7.8235
 Frc consts  --      0.9514                 1.2651                 2.1803
 IR Inten    --      8.1310                 1.9718                16.7858

                     40                     41                     42
                      A                      A                      A
 Frequencies --    730.5028               735.4319               755.2291
 Red. masses --      4.9703                 2.5547                 3.8431
 Frc consts  --      1.5627                 0.8141                 1.2915
 IR Inten    --      1.7615                16.6348                12.1520

                     43                     44                     45
                      A                      A                      A
 Frequencies --    769.4898               779.5636               811.5397
 Red. masses --      1.6888                 3.2059                 6.5634
 Frc consts  --      0.5892                 1.1479                 2.5468
 IR Inten    --     56.2134                22.2715                 9.8276

                     46                     47                     48
                      A                      A                      A
 Frequencies --    838.7470               859.1235               880.0490
 Red. masses --      3.9814                 1.5182                 1.3548
 Frc consts  --      1.6502                 0.6602                 0.6182
 IR Inten    --      1.9589                14.9363                 1.2061

                     49                     50                     51
                      A                      A                      A
 Frequencies --    907.0554               926.4114               937.6323
 Red. masses --      2.5043                 1.5285                 3.6309
 Frc consts  --      1.2140                 0.7729                 1.8807
 IR Inten    --      2.7842                10.2708                11.0976

                     52                     53                     54
                      A                      A                      A
 Frequencies --    944.1425               955.7046               968.0946
 Red. masses --      1.8186                 1.3804                10.1288
 Frc consts  --      0.9551                 0.7428                 5.5930
 IR Inten    --      9.4450                 2.7802               172.1622

                     55                     56                     57
                      A                      A                      A
 Frequencies --    981.1347               992.3575               996.1151
 Red. masses --      2.2774                 1.3317                 1.2792
 Frc consts  --      1.2916                 0.7727                 0.7479
 IR Inten    --      4.8703                 0.4497                 0.1063

                     58                     59                     60
                      A                      A                      A
 Frequencies --   1054.2987              1058.6479              1089.7703
 Red. masses --      5.5105                 2.0278                 1.9918
 Frc consts  --      3.6088                 1.3390                 1.3937
 IR Inten    --    166.8331                 9.3617                 3.2355

                     61                     62                     63
                      A                      A                      A
 Frequencies --   1105.7453              1119.2569              1122.1101
 Red. masses --      2.6123                 1.9780                 2.1438
 Frc consts  --      1.8819                 1.4600                 1.5904
 IR Inten    --     11.4330               158.9506                59.1507

                     64                     65                     66
                      A                      A                      A
 Frequencies --   1144.8132              1150.7805              1159.5495
 Red. masses --      2.0098                 2.7531                 1.8661
 Frc consts  --      1.5519                 2.1481                 1.4783
 IR Inten    --     39.2028                10.2762                 5.4235

                     67                     68                     69
                      A                      A                      A
 Frequencies --   1168.9097              1169.0806              1178.1403
 Red. masses --      1.4292                 3.0999                 1.1327
 Frc consts  --      1.1505                 2.4962                 0.9263
 IR Inten    --     24.9398               137.4934                 1.6694

                     70                     71                     72
                      A                      A                      A
 Frequencies --   1195.1704              1224.4124              1252.2120
 Red. masses --      1.8310                 1.8936                 1.9017
 Frc consts  --      1.5410                 1.6726                 1.7569
 IR Inten    --      8.8441                 2.7651                42.5917

                     73                     74                     75
                      A                      A                      A
 Frequencies --   1268.2042              1287.3964              1299.2920
 Red. masses --      4.5568                 2.0178                 1.4895
 Frc consts  --      4.3180                 1.9704                 1.4815
 IR Inten    --    215.2031                41.1231                20.3934

                     76                     77                     78
                      A                      A                      A
 Frequencies --   1302.4811              1329.2506              1340.5814
 Red. masses --      2.9329                 1.5253                10.3600
 Frc consts  --      2.9315                 1.5879                10.9698
 IR Inten    --    210.3962                12.2584                14.4615

                     79                     80                     81
                      A                      A                      A
 Frequencies --   1355.8278              1365.1956              1403.0668
 Red. masses --      1.5755                 3.2452                 1.4023
 Frc consts  --      1.7064                 3.5635                 1.6265
 IR Inten    --     45.3582                24.7569                 5.2648

                     82                     83                     84
                      A                      A                      A
 Frequencies --   1421.9546              1426.8561              1435.1785
 Red. masses --      2.8522                 3.4535                 1.5339
 Frc consts  --      3.3978                 4.1425                 1.8615
 IR Inten    --      2.2350                17.0525                28.0125

                     85                     86                     87
                      A                      A                      A
 Frequencies --   1501.8722              1502.8081              1510.9082
 Red. masses --      1.1370                 2.2896                 1.0710
 Frc consts  --      1.5110                 3.0466                 1.4405
 IR Inten    --      0.6245               147.9555                 3.0254

                     88                     89                     90
                      A                      A                      A
 Frequencies --   1518.2124              1524.2698              1538.8390
 Red. masses --      2.5705                 1.0700                 2.9364
 Frc consts  --      3.4909                 1.4647                 4.0969
 IR Inten    --     23.0542                 4.2805                96.5524

                     91                     92                     93
                      A                      A                      A
 Frequencies --   1553.0926              1642.0394              1666.9488
 Red. masses --      1.9761                 8.0237                 6.2495
 Frc consts  --      2.8083                12.7466                10.2316
 IR Inten    --    168.2802                27.4052                77.6941

                     94                     95                     96
                      A                      A                      A
 Frequencies --   1682.4044              1695.8761              1787.1559
 Red. masses --      7.0472                 7.4752                10.8046
 Frc consts  --     11.7525                12.6667                20.3321
 IR Inten    --     14.2055                43.8069               238.0052

                     97                     98                     99
                      A                      A                      A
 Frequencies --   3047.9034              3072.1029              3075.7658
 Red. masses --      1.0702                 1.0527                 1.0648
 Frc consts  --      5.8574                 5.8537                 5.9352
 IR Inten    --     38.0680                20.8692                17.4430

                    100                    101                    102
                      A                      A                      A
 Frequencies --   3133.3941              3148.2705              3153.8409
 Red. masses --      1.0948                 1.1019                 1.1026
 Frc consts  --      6.3332                 6.4349                 6.4620
 IR Inten    --     19.3817                28.4679                22.0983

                    103                    104                    105
                      A                      A                      A
 Frequencies --   3200.3947              3214.9879              3229.3599
 Red. masses --      1.0879                 1.0885                 1.0931
 Frc consts  --      6.5652                 6.6289                 6.7164
 IR Inten    --     13.2851                11.9869                22.3341

                    106                    107                    108
                      A                      A                      A
 Frequencies --   3229.4351              3231.1359              3238.2294
 Red. masses --      1.0894                 1.0892                 1.0966
 Frc consts  --      6.6943                 6.6996                 6.7751
 IR Inten    --     16.9432                10.7381                11.7541

                    109                    110                    111
                      A                      A                      A
 Frequencies --   3247.5714              3523.1647              3666.7646
 Red. masses --      1.0947                 1.0729                 1.0796
 Frc consts  --      6.8026                 7.8465                 8.5518
 IR Inten    --      5.4801                 7.1926                41.7340

 - Thermochemistry -
 -------------------
 Temperature   298.150 Kelvin.  Pressure   1.00000 Atm.
 Atom     1 has atomic number  6 and mass  12.00000

 Molecular mass:   364.05227 amu.
 Principal axes and moments of inertia in atomic units:
                           1         2         3
     Eigenvalues --  4103.94958********************
           X            0.99999   0.00028   0.00492
           Y            0.00038   0.99095  -0.13420
           Z           -0.00492   0.13420   0.99094
 This molecule is an asymmetric top.
 Rotational symmetry number  1.
 Warning -- assumption of classical behavior for rotation
           may cause significant error
 Rotational temperatures (Kelvin)      0.02111     0.00438     0.00431
 Rotational constants (GHZ):           0.43976     0.09116     0.08985
 Zero-point vibrational energy     776391.0 (Joules/Mol)
                                  185.56190 (Kcal/Mol)
 Warning -- explicit consideration of  37 degrees of freedom as
           vibrations may cause significant error
 Vibrational temperatures:      7.58    24.50    64.83    70.60    98.90
          (Kelvin)            109.90   139.77   160.98   171.37   229.82
                              249.67   302.13   327.84   343.91   360.24
                              379.66   388.04   435.91   441.77   471.50
                              517.02   543.95   594.38   607.95   616.92
                              655.17   659.06   679.97   723.88   735.92
                              742.40   777.46   823.42   844.95   855.70
                              860.18   880.96   915.90   989.53  1051.03
                             1058.12  1086.61  1107.12  1121.62  1167.62
                             1206.77  1236.09  1266.19  1305.05  1332.90
                             1349.04  1358.41  1375.05  1392.87  1411.63
                             1427.78  1433.19  1516.90  1523.16  1567.94
                             1590.92  1610.36  1614.47  1647.13  1655.72
                             1668.33  1681.80  1682.05  1695.08  1719.58
                             1761.66  1801.65  1824.66  1852.28  1869.39
                             1873.98  1912.50  1928.80  1950.73  1964.21
                             2018.70  2045.88  2052.93  2064.90  2160.86
                             2162.21  2173.86  2184.37  2193.08  2214.05
                             2234.55  2362.53  2398.37  2420.60  2439.99
                             2571.32  4385.25  4420.07  4425.34  4508.26
                             4529.66  4537.67  4604.65  4625.65  4646.33
                             4646.44  4648.88  4659.09  4672.53  5069.05
                             5275.66

 Zero-point correction=                           0.295712 (Hartree/Particle)
 Thermal correction to Energy=                    0.317047
 Thermal correction to Enthalpy=                  0.317991
 Thermal correction to Gibbs Free Energy=         0.242023
 Sum of electronic and zero-point Energies=          -1866.295012
 Sum of electronic and thermal Energies=             -1866.273677
 Sum of electronic and thermal Enthalpies=           -1866.272733
 Sum of electronic and thermal Free Energies=        -1866.348701

                     E (Thermal)             CV                S
                      KCal/Mol        Cal/Mol-Kelvin    Cal/Mol-Kelvin
 Total                  198.950             81.923            159.888
 Electronic               0.000              0.000              0.000
 Translational            0.889              2.981             43.570
 Rotational               0.889              2.981             35.744
 Vibrational            197.172             75.961             80.574
 Vibration     1          0.593              1.987              9.286
 Vibration     2          0.593              1.986              6.954
 Vibration     3          0.595              1.979              5.023
 Vibration     4          0.595              1.978              4.855
 Vibration     5          0.598              1.969              4.189
 Vibration     6          0.599              1.965              3.982
 Vibration     7          0.603              1.951              3.511
 Vibration     8          0.607              1.940              3.236
 Vibration     9          0.609              1.933              3.115
 Vibration    10          0.622              1.892              2.553
 Vibration    11          0.627              1.875              2.397
 Vibration    12          0.642              1.826              2.044
 Vibration    13          0.651              1.799              1.896
 Vibration    14          0.657              1.781              1.810
 Vibration    15          0.663              1.762              1.728
 Vibration    16          0.670              1.739              1.636
 Vibration    17          0.674              1.729              1.598
 Vibration    18          0.694              1.668              1.400
 Vibration    19          0.697              1.660              1.378
 Vibration    20          0.711              1.620              1.271
 Vibration    21          0.734              1.556              1.125
 Vibration    22          0.748              1.517              1.047
 Vibration    23          0.777              1.442              0.916
 Vibration    24          0.785              1.421              0.883
 Vibration    25          0.790              1.408              0.863
 Vibration    26          0.814              1.349              0.780
 Vibration    27          0.816              1.343              0.772
 Vibration    28          0.829              1.311              0.730
 Vibration    29          0.858              1.243              0.650
 Vibration    30          0.867              1.225              0.630
 Vibration    31          0.871              1.215              0.619
 Vibration    32          0.895              1.161              0.565
 Vibration    33          0.929              1.091              0.500
 Vibration    34          0.944              1.059              0.472
 Vibration    35          0.952              1.043              0.459
 Vibration    36          0.956              1.036              0.453
 Vibration    37          0.972              1.006              0.429

                           ! Non-Optimized Parameters !
 Normal termination of Gaussian 16 at Sat Jul  2 18:54:21 2022.
