 Gaussian 16, Revision C.01,
 Gaussian 16:  ES64L-G16RevC.01  3-Jul-2019

 --------------------------------------------------
 #M062X/gen 6D INT(grid=ultrafine) OPT Freq=noraman
 --------------------------------------------------

 ---------
 A.38.freq
 ---------
 Symbolic Z-matrix:
 Charge = -1 Multiplicity = 1

 SCF Done:  E(RM062X) =  -2358.38100770     A.U. after   17 cycles
 SCF Done:  E(RM062X) =  -2358.38423466     A.U. after   15 cycles
 SCF Done:  E(RM062X) =  -2358.38534155     A.U. after   16 cycles
 SCF Done:  E(RM062X) =  -2358.38567304     A.U. after   15 cycles
 SCF Done:  E(RM062X) =  -2358.38585880     A.U. after   16 cycles
 SCF Done:  E(RM062X) =  -2358.38599074     A.U. after   14 cycles
 SCF Done:  E(RM062X) =  -2358.38605011     A.U. after   14 cycles
 SCF Done:  E(RM062X) =  -2358.38605679     A.U. after   12 cycles
 SCF Done:  E(RM062X) =  -2358.38605968     A.U. after   12 cycles
 SCF Done:  E(RM062X) =  -2358.38606107     A.U. after   12 cycles
 SCF Done:  E(RM062X) =  -2358.38606151     A.U. after   12 cycles
 SCF Done:  E(RM062X) =  -2358.38606180     A.U. after   10 cycles
 SCF Done:  E(RM062X) =  -2358.38606182     A.U. after   10 cycles
 Optimization completed.
    -- Stationary point found.
 Normal termination of Gaussian 16 at Sat Jul  2 18:21:36 2022.

 ------------------------------------------------------------------
 #N Geom=AllCheck Guess=TCheck SCRF=Check GenChk RM062X/ChkBas Freq
 ------------------------------------------------------------------

 Structure from the checkpoint file:  "/jobfs/50094819.gadi-pbs/Gau-166678.chk"
 ---------
 A.38.freq
 ---------
 Charge = -1 Multiplicity = 1

                         Standard orientation:
 ---------------------------------------------------------------------
 Center     Atomic      Atomic             Coordinates (Angstroms)
 Number     Number       Type             X           Y           Z
 ---------------------------------------------------------------------
      1          6           0        0.875513   -0.457937   -0.084265
      2          6           0        1.176706    0.909913   -0.032863
      3          6           0        0.139145    1.851712   -0.049025
      4          6           0       -1.194177    1.452702   -0.087798
      5          6           0       -1.467028    0.093786   -0.136077
      6          6           0       -0.451658   -0.857670   -0.146573
      7         16           0        2.155907   -1.802287    0.018558
      8          8           0        3.039456   -1.497995   -1.126376
      9          8           0        2.688010   -1.564623    1.368242
     10          7           0        1.372194   -3.145915   -0.078957
     11          1           0        1.388917   -3.424808   -1.061279
     12         17           0        2.813858    1.447694    0.062388
     13         17           0        0.468886    3.562232   -0.002308
     14         16           0       -3.162693   -0.450395   -0.109063
     15          1           0       -1.995918    2.183168   -0.080840
     16          1           0       -0.648009   -1.928173   -0.186505
     17          8           0       -4.006657    0.733025   -0.023498
     18          8           0       -3.356145   -1.457042   -1.138619
     19          7           0       -3.358396   -1.261448    1.341978
     20          1           0       -3.135990   -0.658115    2.131282
     21          1           0       -2.791970   -2.108346    1.364535
 ---------------------------------------------------------------------

 SCF Done:  E(RM062X) =  -2358.38606182     A.U. after    2 cycles

 The electronic state is 1-A.
 Alpha  occ. eigenvalues -- -102.59708-102.57669 -90.08628 -89.99971 -19.56587
 Alpha  occ. eigenvalues --  -19.56330 -19.47891 -19.47716 -14.72286 -14.58584
 Alpha  occ. eigenvalues --  -10.54817 -10.54486 -10.51200 -10.50130 -10.48542
 Alpha  occ. eigenvalues --  -10.48462  -9.74357  -9.72288  -8.39616  -8.30772
 Alpha  occ. eigenvalues --   -7.46764  -7.46103  -7.46075  -7.44715  -7.44035
 Alpha  occ. eigenvalues --   -7.43971  -6.31831  -6.31785  -6.31678  -6.22983
 Alpha  occ. eigenvalues --   -6.22955  -6.22862  -1.16651  -1.07275  -1.05249
 Alpha  occ. eigenvalues --   -0.95621  -0.94749  -0.93855  -0.87136  -0.86599
 Alpha  occ. eigenvalues --   -0.82953  -0.77184  -0.75640  -0.67147  -0.63189
 Alpha  occ. eigenvalues --   -0.59970  -0.55913  -0.53618  -0.52499  -0.50403
 Alpha  occ. eigenvalues --   -0.48737  -0.46744  -0.44795  -0.44341  -0.42852
 Alpha  occ. eigenvalues --   -0.41429  -0.40938  -0.38071  -0.37763  -0.36349
 Alpha  occ. eigenvalues --   -0.34224  -0.33905  -0.32682  -0.32266  -0.31305
 Alpha  occ. eigenvalues --   -0.30624  -0.29813  -0.29639  -0.28672  -0.26901
 Alpha  occ. eigenvalues --   -0.25352  -0.24266  -0.21648  -0.21356  -0.20862
 Alpha  occ. eigenvalues --   -0.18496  -0.17056
 Alpha virt. eigenvalues --    0.07092   0.08456   0.08890   0.09671   0.11493
 Alpha virt. eigenvalues --    0.12448   0.13023   0.13394   0.14432   0.15258
 Alpha virt. eigenvalues --    0.15606   0.15987   0.16683   0.17262   0.17649

 Mulliken charges:
               1
     1  C   -1.749896
     2  C    0.075538
     3  C    0.241262
     4  C   -0.979893
     5  C   -0.692313
     6  C    0.991621
     7  S    1.504693
     8  O   -0.537581
     9  O   -0.544980
    10  N   -0.942068
    11  H    0.375187
    12  Cl   0.285291
    13  Cl   0.206964
    14  S    1.370413
    15  H    0.270548
    16  H    0.294787
    17  O   -0.587217
    18  O   -0.502430
    19  N   -0.972771
    20  H    0.440917
    21  H    0.451927
 Sum of Mulliken charges =  -1.00000

 Dipole moment (field-independent basis, Debye):
    X=             -5.3328    Y=              5.8626    Z=              1.4234  Tot=              8.0520
 Quadrupole moment (field-independent basis, Debye-Ang):
   XX=           -183.1333   YY=           -149.1128   ZZ=           -128.1867
   XY=             15.2926   XZ=            -10.9326   YZ=              1.3433

  Exact polarizability:     198.903       5.005     192.684      -0.665       1.068     111.181
 Approx polarizability:     232.204       9.777     238.073       1.544       4.844     152.481

                      1                      2                      3
                      A                      A                      A
 Frequencies --     23.0153                46.5896                60.7594
 Red. masses --      6.7714                10.7923                20.1221
 Frc consts  --      0.0021                 0.0138                 0.0438
 IR Inten    --      5.5388                 2.2941                 1.9191

                      4                      5                      6
                      A                      A                      A
 Frequencies --     80.0245               102.5676               145.4561
 Red. masses --      7.8692                11.4311                17.0360
 Frc consts  --      0.0297                 0.0709                 0.2124
 IR Inten    --      6.1776                 4.2787                 0.1829

                      7                      8                      9
                      A                      A                      A
 Frequencies --    156.2821               211.7499               221.4386
 Red. masses --      7.0813                15.4174                 6.6088
 Frc consts  --      0.1019                 0.4073                 0.1909
 IR Inten    --      3.4690                 0.9322                 4.0596

                     10                     11                     12
                      A                      A                      A
 Frequencies --    236.5566               243.8100               267.1915
 Red. masses --      3.9829                10.5595                 2.5394
 Frc consts  --      0.1313                 0.3698                 0.1068
 IR Inten    --     10.5240                 2.0657                 7.4447

                     13                     14                     15
                      A                      A                      A
 Frequencies --    281.0002               291.6513               325.6941
 Red. masses --      9.1958                 6.4948                 4.8672
 Frc consts  --      0.4278                 0.3255                 0.3042
 IR Inten    --      0.7938                 8.3632                 0.6911

                     16                     17                     18
                      A                      A                      A
 Frequencies --    362.9251               428.2766               434.1866
 Red. masses --      4.8279                 3.4119                 2.5878
 Frc consts  --      0.3747                 0.3687                 0.2874
 IR Inten    --      2.1207                29.8725                20.5702

                     19                     20                     21
                      A                      A                      A
 Frequencies --    456.7124               472.3219               487.5178
 Red. masses --      6.1560                 8.3463                 5.8542
 Frc consts  --      0.7565                 1.0970                 0.8198
 IR Inten    --      1.2740                25.7086                23.0804

                     22                     23                     24
                      A                      A                      A
 Frequencies --    511.1209               529.2773               564.4933
 Red. masses --      1.7966                 8.4645                 6.3674
 Frc consts  --      0.2765                 1.3971                 1.1955
 IR Inten    --     54.1830                74.9253                 8.1509

                     25                     26                     27
                      A                      A                      A
 Frequencies --    569.3494               596.4716               598.8972
 Red. masses --      6.6364                15.0608                 6.0541
 Frc consts  --      1.2675                 3.1570                 1.2794
 IR Inten    --      3.3569               215.0689                16.8331

                     28                     29                     30
                      A                      A                      A
 Frequencies --    626.2588               716.3114               762.5471
 Red. masses --      7.7458                 6.4136                 3.3979
 Frc consts  --      1.7899                 1.9389                 1.1641
 IR Inten    --      4.1283                10.8519               452.9553

                     31                     32                     33
                      A                      A                      A
 Frequencies --    785.8812               852.6484               879.2188
 Red. masses --     10.4992                 4.4131                 2.4247
 Frc consts  --      3.8205                 1.8903                 1.1043
 IR Inten    --     16.6898               194.5482                12.7835

                     34                     35                     36
                      A                      A                      A
 Frequencies --    912.8943               961.5480               963.7841
 Red. masses --      1.3404                 1.4812                 6.2350
 Frc consts  --      0.6581                 0.8069                 3.4123
 IR Inten    --     11.0255                18.9161               177.8728

                     37                     38                     39
                      A                      A                      A
 Frequencies --   1059.0529              1121.6638              1129.3535
 Red. masses --      6.5584                 1.6947                 1.2702
 Frc consts  --      4.3339                 1.2562                 0.9545
 IR Inten    --    123.3468               126.5387                 4.8938

                     40                     41                     42
                      A                      A                      A
 Frequencies --   1138.3016              1155.4450              1179.7499
 Red. masses --      1.9231                 6.2689                 3.1509
 Frc consts  --      1.4682                 4.9311                 2.5838
 IR Inten    --     37.0799               164.6214                78.2355

                     43                     44                     45
                      A                      A                      A
 Frequencies --   1191.7846              1220.9185              1286.0545
 Red. masses --     12.5204                 1.4410                 7.4420
 Frc consts  --     10.4777                 1.2656                 7.2520
 IR Inten    --    301.9945                 3.7550               248.4035

                     46                     47                     48
                      A                      A                      A
 Frequencies --   1319.7375              1379.8494              1422.5317
 Red. masses --     11.9962                11.4334                 3.8624
 Frc consts  --     12.3103                12.8260                 4.6050
 IR Inten    --      7.4963               206.2937                56.1885

                     49                     50                     51
                      A                      A                      A
 Frequencies --   1447.6620              1630.0872              1633.5334
 Red. masses --      3.5818                 4.3417                 1.2767
 Frc consts  --      4.4227                 6.7973                 2.0072
 IR Inten    --     66.0225                 8.7157                42.3563

                     52                     53                     54
                      A                      A                      A
 Frequencies --   1643.4463              3205.6869              3258.8930
 Red. masses --      7.0828                 1.0904                 1.0923
 Frc consts  --     11.2712                 6.6021                 6.8348
 IR Inten    --     10.6590                20.0450                 6.2627

                     55                     56                     57
                      A                      A                      A
 Frequencies --   3522.1869              3522.6541              3631.7035
 Red. masses --      1.0502                 1.0712                 1.0975
 Frc consts  --      7.6760                 7.8319                 8.5287
 IR Inten    --     25.9108                13.8081                35.6927

 - Thermochemistry -
 -------------------
 Temperature   298.150 Kelvin.  Pressure   1.00000 Atm.
 Atom     1 has atomic number  6 and mass  12.00000

 Molecular mass:   302.90678 amu.
 Principal axes and moments of inertia in atomic units:
                           1         2         3
     Eigenvalues --  4012.438126563.425009825.60894
           X            0.99995  -0.00731  -0.00724
           Y            0.00731   0.99997  -0.00062
           Z            0.00724   0.00056   0.99997
 This molecule is an asymmetric top.
 Rotational symmetry number  1.
 Warning -- assumption of classical behavior for rotation
           may cause significant error
 Rotational temperatures (Kelvin)      0.02159     0.01320     0.00882
 Rotational constants (GHZ):           0.44979     0.27497     0.18368
 Zero-point vibrational energy     324587.1 (Joules/Mol)
                                   77.57818 (Kcal/Mol)
 Warning -- explicit consideration of  27 degrees of freedom as
           vibrations may cause significant error
 Vibrational temperatures:     33.11    67.03    87.42   115.14   147.57
          (Kelvin)            209.28   224.86   304.66   318.60   340.35
                              350.79   384.43   404.30   419.62   468.60
                              522.17   616.19   624.70   657.11   679.57
                              701.43   735.39   761.51   812.18   819.17
                              858.19   861.68   901.05  1030.61  1097.14
                             1130.71  1226.77  1265.00  1313.45  1383.45
                             1386.67  1523.74  1613.82  1624.89  1637.76
                             1662.43  1697.40  1714.71  1756.63  1850.35
                             1898.81  1985.30  2046.71  2082.86  2345.33
                             2350.29  2364.55  4612.27  4688.82  5067.64
                             5068.31  5225.21

 Zero-point correction=                           0.123629 (Hartree/Particle)
 Thermal correction to Energy=                    0.139241
 Thermal correction to Enthalpy=                  0.140185
 Thermal correction to Gibbs Free Energy=         0.078754
 Sum of electronic and zero-point Energies=          -2358.262433
 Sum of electronic and thermal Energies=             -2358.246821
 Sum of electronic and thermal Enthalpies=           -2358.245877
 Sum of electronic and thermal Free Energies=        -2358.307308

                     E (Thermal)             CV                S
                      KCal/Mol        Cal/Mol-Kelvin    Cal/Mol-Kelvin
 Total                   87.375             56.791            129.293
 Electronic               0.000              0.000              0.000
 Translational            0.889              2.981             43.021
 Rotational               0.889              2.981             33.914
 Vibrational             85.598             50.829             52.358
 Vibration     1          0.593              1.985              6.355
 Vibration     2          0.595              1.979              4.957
 Vibration     3          0.597              1.973              4.432
 Vibration     4          0.600              1.963              3.890
 Vibration     5          0.605              1.947              3.405
 Vibration     6          0.617              1.908              2.731
 Vibration     7          0.620              1.896              2.594
 Vibration     8          0.643              1.823              2.029
 Vibration     9          0.648              1.808              1.947
 Vibration    10          0.655              1.785              1.829
 Vibration    11          0.659              1.773              1.775
 Vibration    12          0.672              1.733              1.614
 Vibration    13          0.681              1.709              1.528
 Vibration    14          0.687              1.689              1.464
 Vibration    15          0.710              1.624              1.281
 Vibration    16          0.737              1.549              1.110
 Vibration    17          0.790              1.409              0.864
 Vibration    18          0.795              1.396              0.845
 Vibration    19          0.815              1.346              0.776
 Vibration    20          0.829              1.311              0.731
 Vibration    21          0.843              1.278              0.690
 Vibration    22          0.866              1.225              0.631
 Vibration    23          0.884              1.185              0.589
 Vibration    24          0.920              1.108              0.515
 Vibration    25          0.925              1.098              0.505
 Vibration    26          0.954              1.039              0.456
 Vibration    27          0.957              1.034              0.452

                           ! Non-Optimized Parameters !
 Normal termination of Gaussian 16 at Sat Jul  2 18:28:08 2022.
