 Gaussian 16, Revision C.01,
 Gaussian 16:  ES64L-G16RevC.01  3-Jul-2019

 --------------------------------------------------
 #M062X/gen 6D INT(grid=ultrafine) OPT Freq=noraman
 --------------------------------------------------

 ---------
 A.39.freq
 ---------
 Symbolic Z-matrix:
 Charge = -1 Multiplicity = 1

 SCF Done:  E(RM062X) =  -1043.26279449     A.U. after   15 cycles
 SCF Done:  E(RM062X) =  -1043.26530829     A.U. after   14 cycles
 SCF Done:  E(RM062X) =  -1043.26580738     A.U. after   13 cycles
 SCF Done:  E(RM062X) =  -1043.26586771     A.U. after   12 cycles
 SCF Done:  E(RM062X) =  -1043.26588259     A.U. after   12 cycles
 SCF Done:  E(RM062X) =  -1043.26589133     A.U. after   12 cycles
 SCF Done:  E(RM062X) =  -1043.26589655     A.U. after   12 cycles
 SCF Done:  E(RM062X) =  -1043.26589817     A.U. after   11 cycles
 SCF Done:  E(RM062X) =  -1043.26589870     A.U. after   11 cycles
 SCF Done:  E(RM062X) =  -1043.26589900     A.U. after   11 cycles
 SCF Done:  E(RM062X) =  -1043.26589923     A.U. after   11 cycles
 SCF Done:  E(RM062X) =  -1043.26589934     A.U. after   11 cycles
 SCF Done:  E(RM062X) =  -1043.26589938     A.U. after    9 cycles
 Optimization completed.
    -- Stationary point found.
 Normal termination of Gaussian 16 at Sat Jul  2 11:39:04 2022.

 ------------------------------------------------------------------
 #N Geom=AllCheck Guess=TCheck SCRF=Check GenChk RM062X/ChkBas Freq
 ------------------------------------------------------------------

 Structure from the checkpoint file:  "/jobfs/50065313.gadi-pbs/Gau-175491.chk"
 ---------
 A.39.freq
 ---------
 Charge = -1 Multiplicity = 1

                         Standard orientation:
 ---------------------------------------------------------------------
 Center     Atomic      Atomic             Coordinates (Angstroms)
 Number     Number       Type             X           Y           Z
 ---------------------------------------------------------------------
      1         16           0        2.739933   -0.209183    0.203357
      2          8           0        3.282462   -0.251502    1.579103
      3          8           0        2.470278   -1.517233   -0.442292
      4          7           0        3.498477    0.841303   -0.672817
      5          1           0        3.226270    0.651056   -1.639287
      6          6           0        1.060749    0.462011    0.546590
      7          7           0        0.296222    0.712471   -0.673888
      8          6           0       -0.785623    1.702832   -0.487305
      9          6           0       -1.968386    0.861912   -0.075724
     10          6           0       -1.635681   -0.439314   -0.447899
     11          8           0       -0.397893   -0.521009   -0.994761
     12          6           0       -3.207097    1.130494    0.481217
     13          6           0       -4.111597    0.074268    0.656738
     14          6           0       -3.763267   -1.220876    0.268699
     15          6           0       -2.513942   -1.503274   -0.292119
     16          1           0        1.254262    1.421592    1.031417
     17          1           0        0.539250   -0.216757    1.234807
     18          1           0       -0.473178    2.450091    0.245152
     19          1           0       -3.477551    2.141584    0.776073
     20          1           0       -5.085504    0.263369    1.098621
     21          1           0       -4.471822   -2.031841    0.415278
     22          1           0       -2.223684   -2.506834   -0.583734
     23          1           0       -0.979573    2.207881   -1.442678
 ---------------------------------------------------------------------

 SCF Done:  E(RM062X) =  -1043.26589938     A.U. after    1 cycles

 The electronic state is 1-A.
 Alpha  occ. eigenvalues --  -89.95537 -19.59416 -19.43991 -19.43980 -14.71372
 Alpha  occ. eigenvalues --  -14.54555 -10.52047 -10.49557 -10.48196 -10.48016
 Alpha  occ. eigenvalues --  -10.47379 -10.47362 -10.47239 -10.45110  -8.26445
 Alpha  occ. eigenvalues --   -6.18661  -6.18591  -6.18533  -1.13048  -1.03017
 Alpha  occ. eigenvalues --   -0.91458  -0.88685  -0.87696  -0.78938  -0.78025
 Alpha  occ. eigenvalues --   -0.75741  -0.69760  -0.62457  -0.60769  -0.59274
 Alpha  occ. eigenvalues --   -0.51606  -0.50450  -0.47978  -0.46257  -0.44898
 Alpha  occ. eigenvalues --   -0.43053  -0.40774  -0.40424  -0.39353  -0.38681
 Alpha  occ. eigenvalues --   -0.37486  -0.35365  -0.34386  -0.33837  -0.33379
 Alpha  occ. eigenvalues --   -0.31573  -0.30863  -0.24228  -0.22613  -0.22532
 Alpha  occ. eigenvalues --   -0.20657  -0.19255  -0.18035  -0.16839  -0.14717
 Alpha  occ. eigenvalues --   -0.12427
 Alpha virt. eigenvalues --    0.08507   0.09396   0.09833   0.10986   0.11357
 Alpha virt. eigenvalues --    0.12496   0.13114   0.13548   0.14810   0.15531
 Alpha virt. eigenvalues --    0.15895   0.17035   0.17562   0.18872   0.19132

 Mulliken charges:
               1
     1  S    1.280695
     2  O   -0.682709
     3  O   -0.665095
     4  N   -0.886189
     5  H    0.342520
     6  C   -0.571200
     7  N   -0.297349
     8  C   -0.423872
     9  C    0.573982
    10  C   -0.158211
    11  O   -0.083745
    12  C   -1.034140
    13  C   -0.089154
    14  C   -0.287560
    15  C    0.253423
    16  H    0.231492
    17  H    0.247534
    18  H    0.224659
    19  H    0.196173
    20  H    0.184359
    21  H    0.189434
    22  H    0.223634
    23  H    0.231318
 Sum of Mulliken charges =  -1.00000

 Dipole moment (field-independent basis, Debye):
    X=            -14.9160    Y=              2.5873    Z=             -0.4479  Tot=             15.1454
 Quadrupole moment (field-independent basis, Debye-Ang):
   XX=           -149.6409   YY=            -95.2678   ZZ=           -100.9308
   XY=              1.3948   XZ=             -7.2529   YZ=              0.9948

  Exact polarizability:     181.370       8.560     139.613     -14.828       1.933     107.119
 Approx polarizability:     189.293       8.740     187.457     -20.432       7.840     142.925

                      1                      2                      3
                      A                      A                      A
 Frequencies --     21.0475                45.3788                76.5475
 Red. masses --      6.6958                 6.4901                 5.8312
 Frc consts  --      0.0017                 0.0079                 0.0201
 IR Inten    --      1.5424                 1.7350                 1.4233

                      4                      5                      6
                      A                      A                      A
 Frequencies --    136.3975               168.2909               233.2984
 Red. masses --      5.0591                 4.6149                 6.7222
 Frc consts  --      0.0555                 0.0770                 0.2156
 IR Inten    --      1.6728                 1.1059                 1.6588

                      7                      8                      9
                      A                      A                      A
 Frequencies --    282.4048               291.5851               336.5909
 Red. masses --      5.1105                 3.7538                 2.5023
 Frc consts  --      0.2401                 0.1880                 0.1670
 IR Inten    --      1.2637                 9.0162                 3.8244

                     10                     11                     12
                      A                      A                      A
 Frequencies --    405.7319               426.1811               437.6301
 Red. masses --      3.8254                 2.9196                 2.5442
 Frc consts  --      0.3710                 0.3124                 0.2871
 IR Inten    --      4.6798                 1.5009                45.7458

                     13                     14                     15
                      A                      A                      A
 Frequencies --    482.4268               498.2548               502.2618
 Red. masses --      3.5056                 3.6142                 2.2043
 Frc consts  --      0.4807                 0.5286                 0.3276
 IR Inten    --      2.8032                12.9118                67.5960

                     16                     17                     18
                      A                      A                      A
 Frequencies --    536.0647               560.3409               577.4455
 Red. masses --      6.1561                 3.7635                 7.2986
 Frc consts  --      1.0423                 0.6962                 1.4339
 IR Inten    --     14.3552                 1.0421                83.6350

                     19                     20                     21
                      A                      A                      A
 Frequencies --    618.7618               720.0769               729.4829
 Red. masses --      6.4207                 2.9158                 6.1233
 Frc consts  --      1.4484                 0.8908                 1.9198
 IR Inten    --     18.7741                12.1825                30.0799

                     22                     23                     24
                      A                      A                      A
 Frequencies --    765.9989               779.4351               846.3881
 Red. masses --      1.4311                 4.5890                 3.7777
 Frc consts  --      0.4947                 1.6426                 1.5945
 IR Inten    --     67.5168                42.5800                 4.7278

                     25                     26                     27
                      A                      A                      A
 Frequencies --    855.8081               876.8974               881.8023
 Red. masses --      5.4295                 1.5654                 4.1513
 Frc consts  --      2.3429                 0.7092                 1.9019
 IR Inten    --      6.9930                 8.5101                24.4241

                     28                     29                     30
                      A                      A                      A
 Frequencies --    923.3860               948.2725               969.5658
 Red. masses --      2.1020                 1.4283                10.3919
 Frc consts  --      1.0559                 0.7567                 5.7557
 IR Inten    --      5.3516                 3.5757               236.3776

                     31                     32                     33
                      A                      A                      A
 Frequencies --    987.3483               990.2277              1043.4633
 Red. masses --      2.7884                 1.2713                 2.6759
 Frc consts  --      1.6016                 0.7344                 1.7166
 IR Inten    --     30.0371                 0.2773                 6.9963

                     34                     35                     36
                      A                      A                      A
 Frequencies --   1051.0208              1107.1998              1123.6908
 Red. masses --      2.0043                 1.7662                 2.2524
 Frc consts  --      1.3045                 1.2757                 1.6757
 IR Inten    --      7.7959                41.1888               243.0024

                     37                     38                     39
                      A                      A                      A
 Frequencies --   1129.1210              1153.7199              1174.9496
 Red. masses --      1.6048                 2.6444                 1.1362
 Frc consts  --      1.2054                 2.0739                 0.9241
 IR Inten    --      7.4190               114.7600                 2.8148

                     40                     41                     42
                      A                      A                      A
 Frequencies --   1208.1810              1254.2492              1262.4697
 Red. masses --      3.0699                 2.4534                 1.7115
 Frc consts  --      2.6402                 2.2740                 1.6072
 IR Inten    --      3.3432               188.0286                82.7711

                     43                     44                     45
                      A                      A                      A
 Frequencies --   1267.1951              1288.3625              1297.7748
 Red. masses --      1.9183                 2.0639                 1.5990
 Frc consts  --      1.8149                 2.0184                 1.5868
 IR Inten    --     45.5713                57.0295                30.0394

                     46                     47                     48
                      A                      A                      A
 Frequencies --   1320.5303              1338.7266              1383.5837
 Red. masses --      1.6361                 1.4618                 4.7300
 Frc consts  --      1.6810                 1.5436                 5.3348
 IR Inten    --     14.3082                14.8734                 9.7020

                     49                     50                     51
                      A                      A                      A
 Frequencies --   1453.3833              1513.6499              1516.2307
 Red. masses --      1.1034                 2.5774                 1.1309
 Frc consts  --      1.3733                 3.4792                 1.5318
 IR Inten    --     12.3543                38.6749                 3.0999

                     52                     53                     54
                      A                      A                      A
 Frequencies --   1529.9136              1683.9922              1692.4648
 Red. masses --      2.9367                 7.1167                 7.5892
 Frc consts  --      4.0498                11.8907                12.8082
 IR Inten    --     75.0746                25.3868                35.1606

                     55                     56                     57
                      A                      A                      A
 Frequencies --   3061.5863              3069.0445              3152.8170
 Red. masses --      1.0692                 1.0627                 1.0968
 Frc consts  --      5.9046                 5.8973                 6.4233
 IR Inten    --     53.3666                13.3620                 5.8863

                     58                     59                     60
                      A                      A                      A
 Frequencies --   3171.2286              3204.3335              3213.4883
 Red. masses --      1.1005                 1.0863                 1.0903
 Frc consts  --      6.5205                 6.5716                 6.6337
 IR Inten    --     14.0248                 2.0678                22.5986

                     61                     62                     63
                      A                      A                      A
 Frequencies --   3230.3688              3250.8217              3511.9674
 Red. masses --      1.0956                 1.0944                 1.0728
 Frc consts  --      6.7360                 6.8139                 7.7960
 IR Inten    --     36.5888                 4.5477                 5.4429

 - Thermochemistry -
 -------------------
 Temperature   298.150 Kelvin.  Pressure   1.00000 Atm.
 Atom     1 has atomic number 16 and mass  31.97207

 Molecular mass:   213.03339 amu.
 Principal axes and moments of inertia in atomic units:
                           1         2         3
     Eigenvalues --  1069.425545479.735565825.38351
           X            0.99996   0.00486  -0.00811
           Y           -0.00485   0.99999   0.00100
           Z            0.00812  -0.00097   0.99997
 This molecule is an asymmetric top.
 Rotational symmetry number  1.
 Warning -- assumption of classical behavior for rotation
           may cause significant error
 Rotational temperatures (Kelvin)      0.08099     0.01581     0.01487
 Rotational constants (GHZ):           1.68758     0.32935     0.30981
 Zero-point vibrational energy     452014.1 (Joules/Mol)
                                  108.03397 (Kcal/Mol)
 Warning -- explicit consideration of  19 degrees of freedom as
           vibrations may cause significant error
 Vibrational temperatures:     30.28    65.29   110.13   196.25   242.13
          (Kelvin)            335.66   406.32   419.53   484.28   583.76
                              613.18   629.65   694.10   716.88   722.64
                              771.28   806.21   830.82   890.26  1036.03
                             1049.56  1102.10  1121.43  1217.76  1231.32
                             1261.66  1268.72  1328.55  1364.35  1394.99
                             1420.57  1424.72  1501.31  1512.18  1593.01
                             1616.74  1624.55  1659.95  1690.49  1738.30
                             1804.58  1816.41  1823.21  1853.67  1867.21
                             1899.95  1926.13  1990.67  2091.09  2177.80
                             2181.52  2201.20  2422.89  2435.08  4404.94
                             4415.67  4536.20  4562.69  4610.32  4623.49
                             4647.78  4677.21  5052.94

 Zero-point correction=                           0.172163 (Hartree/Particle)
 Thermal correction to Energy=                    0.183949
 Thermal correction to Enthalpy=                  0.184893
 Thermal correction to Gibbs Free Energy=         0.132447
 Sum of electronic and zero-point Energies=          -1043.093736
 Sum of electronic and thermal Energies=             -1043.081951
 Sum of electronic and thermal Enthalpies=           -1043.081007
 Sum of electronic and thermal Free Energies=        -1043.133453

                     E (Thermal)             CV                S
                      KCal/Mol        Cal/Mol-Kelvin    Cal/Mol-Kelvin
 Total                  115.430             45.807            110.382
 Electronic               0.000              0.000              0.000
 Translational            0.889              2.981             41.972
 Rotational               0.889              2.981             31.901
 Vibrational            113.652             39.845             36.509
 Vibration     1          0.593              1.985              6.533
 Vibration     2          0.595              1.979              5.009
 Vibration     3          0.599              1.965              3.978
 Vibration     4          0.614              1.917              2.854
 Vibration     5          0.625              1.881              2.454
 Vibration     6          0.654              1.790              1.853
 Vibration     7          0.681              1.706              1.519
 Vibration     8          0.687              1.689              1.465
 Vibration     9          0.717              1.602              1.228
 Vibration    10          0.771              1.458              0.942
 Vibration    11          0.788              1.413              0.871
 Vibration    12          0.798              1.388              0.834
 Vibration    13          0.839              1.289              0.704
 Vibration    14          0.854              1.254              0.663
 Vibration    15          0.858              1.245              0.652
 Vibration    16          0.891              1.170              0.574
 Vibration    17          0.916              1.117              0.523
 Vibration    18          0.934              1.080              0.490
 Vibration    19          0.979              0.992              0.418

 Optimization completed.
    -- Stationary point found.
 Normal termination of Gaussian 16 at Sat Jul  2 11:44:49 2022.
