 Gaussian 16, Revision C.01,
 Gaussian 16:  ES64L-G16RevC.01  3-Jul-2019

 --------------------------------------------------
 #M062X/gen 6D INT(grid=ultrafine) OPT Freq=noraman
 --------------------------------------------------

 ---------------
 A.4.a2b2c2.freq
 ---------------
 Symbolic Z-matrix:
 Charge = -1 Multiplicity = 1

 SCF Done:  E(RM062X) =  -890.744021265     A.U. after   16 cycles
 SCF Done:  E(RM062X) =  -890.746804175     A.U. after   14 cycles
 SCF Done:  E(RM062X) =  -890.747863822     A.U. after   15 cycles
 SCF Done:  E(RM062X) =  -890.748288140     A.U. after   16 cycles
 SCF Done:  E(RM062X) =  -890.748454387     A.U. after   16 cycles
 SCF Done:  E(RM062X) =  -890.748522644     A.U. after   16 cycles
 SCF Done:  E(RM062X) =  -890.748543125     A.U. after   16 cycles
 SCF Done:  E(RM062X) =  -890.748548440     A.U. after   13 cycles
 SCF Done:  E(RM062X) =  -890.748556447     A.U. after   15 cycles
 SCF Done:  E(RM062X) =  -890.748558684     A.U. after   14 cycles
 SCF Done:  E(RM062X) =  -890.748560783     A.U. after   15 cycles
 SCF Done:  E(RM062X) =  -890.748561281     A.U. after   12 cycles
 SCF Done:  E(RM062X) =  -890.748561322     A.U. after   11 cycles
 SCF Done:  E(RM062X) =  -890.748561331     A.U. after   11 cycles
 Optimization completed.
    -- Stationary point found.
 Normal termination of Gaussian 16 at Fri May 20 19:38:57 2022.

 ------------------------------------------------------------------
 #N Geom=AllCheck Guess=TCheck SCRF=Check GenChk RM062X/ChkBas Freq
 ------------------------------------------------------------------

 Structure from the checkpoint file:  "/jobfs/40763172.gadi-pbs/Gau-404801.chk"
 ---------------
 A.4.a2b2c2.freq
 ---------------
 Charge = -1 Multiplicity = 1

                         Standard orientation:
 ---------------------------------------------------------------------
 Center     Atomic      Atomic             Coordinates (Angstroms)
 Number     Number       Type             X           Y           Z
 ---------------------------------------------------------------------
      1          6           0        0.145857   -0.021498   -0.026811
      2          6           0       -0.543894    1.189627   -0.021219
      3          1           0        0.030223    2.113072   -0.031172
      4          6           0       -1.935091    1.210742   -0.019203
      5          1           0       -2.469648    2.159776   -0.021912
      6          6           0       -2.660973    0.013454   -0.022256
      7          7           0       -4.076865    0.034534   -0.069028
      8          6           0       -1.966422   -1.198396   -0.041249
      9          1           0       -2.523883   -2.134131   -0.060112
     10          6           0       -0.571044   -1.213187   -0.038846
     11          1           0       -0.019129   -2.148859   -0.053078
     12         16           0        1.966968   -0.012555    0.039133
     13          8           0        2.241070    0.333507    1.447981
     14          8           0        2.304399   -1.400768   -0.374971
     15          7           0        2.478000    1.119895   -0.915114
     16          1           0        2.483143    0.719491   -1.855959
     17          1           0       -4.465428    0.859563    0.375067
     18          1           0       -4.489066   -0.795396    0.343450
 ---------------------------------------------------------------------

 SCF Done:  E(RM062X) =  -890.748561331     A.U. after    1 cycles

 The electronic state is 1-A.
 Alpha  occ. eigenvalues --  -89.96058 -19.44417 -19.44023 -14.67789 -14.54788
 Alpha  occ. eigenvalues --  -10.48608 -10.44093 -10.44070 -10.43515 -10.43456
 Alpha  occ. eigenvalues --  -10.42578  -8.26901  -6.19125  -6.19061  -6.18994
 Alpha  occ. eigenvalues --   -1.03300  -0.92956  -0.91710  -0.83032  -0.78828
 Alpha  occ. eigenvalues --   -0.72869  -0.71146  -0.58611  -0.57933  -0.51390
 Alpha  occ. eigenvalues --   -0.48144  -0.47993  -0.42819  -0.39409  -0.39142
 Alpha  occ. eigenvalues --   -0.37462  -0.36988  -0.35497  -0.34086  -0.33001
 Alpha  occ. eigenvalues --   -0.28533  -0.27411  -0.24499  -0.21234  -0.20158
 Alpha  occ. eigenvalues --   -0.19167  -0.17782  -0.15450  -0.15187  -0.12164
 Alpha virt. eigenvalues --    0.09291   0.11362   0.12595   0.13325   0.14062
 Alpha virt. eigenvalues --    0.15785   0.15985   0.16989   0.18661   0.19119
 Alpha virt. eigenvalues --    0.19468   0.19552   0.20273   0.21275   0.22842

 Mulliken charges:
               1
     1  C   -1.289178
     2  C    0.018720
     3  H    0.240821
     4  C    0.284521
     5  H    0.169836
     6  C    0.291248
     7  N   -0.870139
     8  C    0.189075
     9  H    0.167893
    10  C   -0.670502
    11  H    0.240111
    12  S    1.293031
    13  O   -0.612432
    14  O   -0.683125
    15  N   -0.848068
    16  H    0.331332
    17  H    0.373417
    18  H    0.373440
 Sum of Mulliken charges =  -1.00000

 Dipole moment (field-independent basis, Debye):
    X=            -11.2142    Y=             -0.5878    Z=             -0.2632  Tot=             11.2327
 Quadrupole moment (field-independent basis, Debye-Ang):
   XX=           -103.5583   YY=            -80.1415   ZZ=            -83.2888
   XY=             -2.0520   XZ=             -9.8093   YZ=             -0.1980

  Exact polarizability:     159.141       3.344     116.563      -3.033      -1.576      81.076
 Approx polarizability:     169.717       3.163     159.210      -1.596      -0.528     104.968

                      1                      2                      3
                      A                      A                      A
 Frequencies --     21.5136                86.6515               159.0127
 Red. masses --      4.9585                 5.8128                 6.4722
 Frc consts  --      0.0014                 0.0257                 0.0964
 IR Inten    --      1.7732                 2.8428                 0.6575

                      4                      5                      6
                      A                      A                      A
 Frequencies --    196.3787               209.0954               271.7253
 Red. masses --      1.0531                 4.6957                 8.2847
 Frc consts  --      0.0239                 0.1210                 0.3604
 IR Inten    --     28.1015                 2.0383                 1.5383

                      7                      8                      9
                      A                      A                      A
 Frequencies --    328.5639               335.3566               400.3811
 Red. masses --      6.8888                 2.3803                 3.2612
 Frc consts  --      0.4382                 0.1577                 0.3080
 IR Inten    --      0.6151                61.6531                 1.4894

                     10                     11                     12
                      A                      A                      A
 Frequencies --    416.5502               436.3963               487.0059
 Red. masses --      2.8281                 2.4708                 2.5639
 Frc consts  --      0.2891                 0.2772                 0.3583
 IR Inten    --      2.8277                 6.9993                58.2168

                     13                     14                     15
                      A                      A                      A
 Frequencies --    517.6638               545.7681               564.8826
 Red. masses --      6.8034                 3.2340                 8.7222
 Frc consts  --      1.0742                 0.5676                 1.6398
 IR Inten    --     11.8250                88.3945               115.8794

                     16                     17                     18
                      A                      A                      A
 Frequencies --    648.2280               665.5780               715.8206
 Red. masses --      6.9556                 9.1442                 2.2400
 Frc consts  --      1.7220                 2.3867                 0.6762
 IR Inten    --      0.1166                64.4626               142.5168

                     19                     20                     21
                      A                      A                      A
 Frequencies --    761.7694               834.3688               836.1822
 Red. masses --      1.8328                 1.3426                 2.5454
 Frc consts  --      0.6266                 0.5507                 1.0486
 IR Inten    --    167.4573                 4.3953                27.6614

                     22                     23                     24
                      A                      A                      A
 Frequencies --    856.9665               957.5808               970.4537
 Red. masses --      2.1207                12.7480                 1.3440
 Frc consts  --      0.9176                 6.8872                 0.7457
 IR Inten    --     76.4018               247.3158                 2.3436

                     25                     26                     27
                      A                      A                      A
 Frequencies --    990.5551              1034.7090              1099.6461
 Red. masses --      1.3475                 3.1204                 1.5493
 Frc consts  --      0.7790                 1.9683                 1.1038
 IR Inten    --      1.0390                 4.2509                64.8837

                     28                     29                     30
                      A                      A                      A
 Frequencies --   1117.1385              1134.7381              1142.7361
 Red. masses --      1.9889                 2.5641                 1.6197
 Frc consts  --      1.4624                 1.9453                 1.2462
 IR Inten    --    201.1105                37.4070                72.5311

                     31                     32                     33
                      A                      A                      A
 Frequencies --   1148.3450              1195.2178              1256.5962
 Red. masses --      1.9538                 1.1573                 5.6048
 Frc consts  --      1.5180                 0.9740                 5.2144
 IR Inten    --     75.0905                 7.5572               244.9114

                     34                     35                     36
                      A                      A                      A
 Frequencies --   1292.3974              1320.1645              1353.9694
 Red. masses --      3.1618                 1.4988                 3.8348
 Frc consts  --      3.1115                 1.5390                 4.1420
 IR Inten    --     52.3855                 3.8842                11.3941

                     37                     38                     39
                      A                      A                      A
 Frequencies --   1470.4902              1548.7055              1668.6286
 Red. masses --      2.9814                 2.7315                 6.9751
 Frc consts  --      3.7983                 3.8601                11.4424
 IR Inten    --      6.1862                56.6579                 8.8036

                     40                     41                     42
                      A                      A                      A
 Frequencies --   1678.7293              1695.7565              3181.5441
 Red. masses --      2.3416                 1.6134                 1.0893
 Frc consts  --      3.8880                 2.7335                 6.4967
 IR Inten    --     10.6146               117.8638                40.2153

                     43                     44                     45
                      A                      A                      A
 Frequencies --   3183.9044              3224.1272              3235.6217
 Red. masses --      1.0887                 1.0926                 1.0919
 Frc consts  --      6.5026                 6.6914                 6.7354
 IR Inten    --     36.1482                 5.6194                 5.8229

                     46                     47                     48
                      A                      A                      A
 Frequencies --   3495.6208              3552.4769              3648.0853
 Red. masses --      1.0730                 1.0492                 1.0958
 Frc consts  --      7.7247                 7.8013                 8.5922
 IR Inten    --      4.8299                 1.7784                 6.9216

 - Thermochemistry -
 -------------------
 Temperature   298.150 Kelvin.  Pressure   1.00000 Atm.
 Atom     1 has atomic number  6 and mass  12.00000

 Molecular mass:   171.02282 amu.
 Principal axes and moments of inertia in atomic units:
                           1         2         3
     Eigenvalues --   685.348453219.577873538.27958
           X            0.99995   0.00211  -0.00936
           Y           -0.00223   0.99991  -0.01300
           Z            0.00933   0.01302   0.99987
 This molecule is an asymmetric top.
 Rotational symmetry number  1.
 Warning -- assumption of classical behavior for rotation
           may cause significant error
 Rotational temperatures (Kelvin)      0.12638     0.02690     0.02448
 Rotational constants (GHZ):           2.63332     0.56055     0.51006
 Zero-point vibrational energy     346281.8 (Joules/Mol)
                                   82.76334 (Kcal/Mol)
 Warning -- explicit consideration of  15 degrees of freedom as
           vibrations may cause significant error
 Vibrational temperatures:     30.95   124.67   228.78   282.55   300.84
          (Kelvin)            390.95   472.73   482.50   576.06   599.32
                              627.88   700.69   744.80   785.24   812.74
                              932.66   957.62  1029.91  1096.02  1200.47
                             1203.08  1232.98  1377.75  1396.27  1425.19
                             1488.72  1582.15  1607.31  1632.64  1644.14
                             1652.21  1719.65  1807.96  1859.47  1899.42
                             1948.06  2115.71  2228.24  2400.78  2415.32
                             2439.82  4577.53  4580.93  4638.80  4655.34
                             5029.42  5111.22  5248.78

 Zero-point correction=                           0.131892 (Hartree/Particle)
 Thermal correction to Energy=                    0.142043
 Thermal correction to Enthalpy=                  0.142987
 Thermal correction to Gibbs Free Energy=         0.095207
 Sum of electronic and zero-point Energies=           -890.616670
 Sum of electronic and thermal Energies=              -890.606519
 Sum of electronic and thermal Enthalpies=            -890.605574
 Sum of electronic and thermal Free Energies=         -890.653354

                     E (Thermal)             CV                S
                      KCal/Mol        Cal/Mol-Kelvin    Cal/Mol-Kelvin
 Total                   89.133             38.458            100.561
 Electronic               0.000              0.000              0.000
 Translational            0.889              2.981             41.318
 Rotational               0.889              2.981             30.435
 Vibrational             87.356             32.497             28.808
 Vibration     1          0.593              1.985              6.489
 Vibration     2          0.601              1.959              3.734
 Vibration     3          0.621              1.893              2.562
 Vibration     4          0.636              1.845              2.167
 Vibration     5          0.642              1.827              2.052
 Vibration     6          0.675              1.725              1.585
 Vibration     7          0.712              1.618              1.267
 Vibration     8          0.716              1.605              1.234
 Vibration     9          0.766              1.469              0.961
 Vibration    10          0.780              1.434              0.904
 Vibration    11          0.797              1.391              0.838
 Vibration    12          0.843              1.279              0.691
 Vibration    13          0.873              1.211              0.615
 Vibration    14          0.901              1.149              0.553
 Vibration    15          0.921              1.107              0.514

                           ! Non-Optimized Parameters !
 Normal termination of Gaussian 16 at Fri May 20 19:41:56 2022.
