 Gaussian 16, Revision C.01,
 Gaussian 16:  ES64L-G16RevC.01  3-Jul-2019

 --------------------------------------------------
 #M062X/gen 6D INT(grid=ultrafine) OPT Freq=noraman
 --------------------------------------------------

 ---------
 A.40.freq
 ---------
 Symbolic Z-matrix:
 Charge = -1 Multiplicity = 1

 SCF Done:  E(RM062X) =  -1122.90403908     A.U. after   17 cycles
 SCF Done:  E(RM062X) =  -1122.90648289     A.U. after   14 cycles
 SCF Done:  E(RM062X) =  -1122.90741513     A.U. after   14 cycles
 SCF Done:  E(RM062X) =  -1122.90753263     A.U. after   14 cycles
 SCF Done:  E(RM062X) =  -1122.90768243     A.U. after   15 cycles
 SCF Done:  E(RM062X) =  -1122.90776709     A.U. after   13 cycles
 SCF Done:  E(RM062X) =  -1122.90781707     A.U. after   13 cycles
 SCF Done:  E(RM062X) =  -1122.90782348     A.U. after   12 cycles
 SCF Done:  E(RM062X) =  -1122.90782546     A.U. after   12 cycles
 SCF Done:  E(RM062X) =  -1122.90782575     A.U. after   10 cycles
 SCF Done:  E(RM062X) =  -1122.90782584     A.U. after    9 cycles
 Optimization completed.
    -- Stationary point found.
 Normal termination of Gaussian 16 at Sat Jul  2 11:46:03 2022.

 ------------------------------------------------------------------
 #N Geom=AllCheck Guess=TCheck SCRF=Check GenChk RM062X/ChkBas Freq
 ------------------------------------------------------------------

 Structure from the checkpoint file:  "/jobfs/50065403.gadi-pbs/Gau-260019.chk"
 ---------
 A.40.freq
 ---------
 Charge = -1 Multiplicity = 1

                         Standard orientation:
 ---------------------------------------------------------------------
 Center     Atomic      Atomic             Coordinates (Angstroms)
 Number     Number       Type             X           Y           Z
 ---------------------------------------------------------------------
      1          6           0        1.059102    0.413941   -0.145782
      2          6           0        1.095031    1.828003   -0.292640
      3          6           0       -0.069074    2.554831   -0.296775
      4          6           0       -1.320979    1.908641   -0.161203
      5          6           0       -1.394863    0.543238   -0.059322
      6          6           0       -0.202624   -0.246974   -0.055470
      7         16           0       -3.053162   -0.231253    0.086184
      8          8           0       -3.081173   -1.149500   -1.084071
      9          8           0       -2.975454   -0.884664    1.407756
     10          7           0       -4.122206    0.907270    0.053736
     11          1           0       -4.386027    1.020404   -0.926717
     12          6           0       -0.236580   -1.670002    0.015412
     13          6           0        0.931003   -2.386607   -0.005063
     14          6           0        2.188648   -1.736298   -0.056054
     15          6           0        2.265565   -0.363361   -0.109381
     16          7           0        3.513420    0.337257   -0.124299
     17          6           0        3.833672    0.941861    1.163719
     18          6           0        4.645168   -0.408660   -0.633256
     19          1           0        2.056373    2.314755   -0.426741
     20          1           0       -0.033237    3.635692   -0.413909
     21          1           0       -2.250872    2.470894   -0.137226
     22          1           0       -1.198182   -2.166432    0.071661
     23          1           0        0.899839   -3.472266    0.036169
     24          1           0        3.094868   -2.335173   -0.037449
     25          1           0        2.971471    1.490709    1.547258
     26          1           0        4.670383    1.639704    1.041078
     27          1           0        4.118151    0.178366    1.910865
     28          1           0        4.385251   -0.867379   -1.590770
     29          1           0        4.992092   -1.202300    0.055251
     30          1           0        5.480603    0.283030   -0.789057
 ---------------------------------------------------------------------

 SCF Done:  E(RM062X) =  -1122.90782584     A.U. after    2 cycles

 The electronic state is 1-A.
 Alpha  occ. eigenvalues --  -89.97050 -19.45225 -19.45026 -14.68354 -14.55877
 Alpha  occ. eigenvalues --  -10.49444 -10.49093 -10.48800 -10.45602 -10.45309
 Alpha  occ. eigenvalues --  -10.45292 -10.44948 -10.44729 -10.44717 -10.44193
 Alpha  occ. eigenvalues --  -10.43502 -10.43443  -8.27894  -6.20116  -6.20047
 Alpha  occ. eigenvalues --   -6.19992  -1.04354  -0.96510  -0.92596  -0.86616
 Alpha  occ. eigenvalues --   -0.81680  -0.80041  -0.76123  -0.73527  -0.72196
 Alpha  occ. eigenvalues --   -0.70976  -0.64839  -0.60092  -0.59018  -0.56334
 Alpha  occ. eigenvalues --   -0.51915  -0.48855  -0.47510  -0.46524  -0.45328
 Alpha  occ. eigenvalues --   -0.44201  -0.43547  -0.40594  -0.40050  -0.38677
 Alpha  occ. eigenvalues --   -0.38339  -0.37398  -0.36621  -0.36146  -0.35372
 Alpha  occ. eigenvalues --   -0.35194  -0.34645  -0.33221  -0.29940  -0.28995
 Alpha  occ. eigenvalues --   -0.28457  -0.25706  -0.24813  -0.22035  -0.21351
 Alpha  occ. eigenvalues --   -0.18808  -0.18677  -0.18369  -0.15975  -0.14712
 Alpha  occ. eigenvalues --   -0.14192
 Alpha virt. eigenvalues --    0.08547   0.09228   0.09917   0.10824   0.11021
 Alpha virt. eigenvalues --    0.11935   0.12535   0.13468   0.13673   0.13877
 Alpha virt. eigenvalues --    0.14914   0.15888   0.16166   0.16487   0.17104

 Mulliken charges:
               1
     1  C   -0.290157
     2  C   -0.222069
     3  C   -0.129502
     4  C   -0.036280
     5  C   -0.775462
     6  C    0.695418
     7  S    1.431750
     8  O   -0.611641
     9  O   -0.573280
    10  N   -0.908085
    11  H    0.358210
    12  C   -0.186379
    13  C   -1.171196
    14  C    0.118815
    15  C   -0.142955
    16  N   -0.267267
    17  C   -0.420828
    18  C   -0.424150
    19  H    0.215749
    20  H    0.180867
    21  H    0.254150
    22  H    0.279752
    23  H    0.187078
    24  H    0.177336
    25  H    0.238193
    26  H    0.197032
    27  H    0.204644
    28  H    0.223505
    29  H    0.197728
    30  H    0.199023
 Sum of Mulliken charges =  -1.00000

 Dipole moment (field-independent basis, Debye):
    X=             14.0999    Y=              1.9248    Z=             -1.4180  Tot=             14.3012
 Quadrupole moment (field-independent basis, Debye-Ang):
   XX=           -164.1783   YY=           -114.7363   ZZ=           -123.0264
   XY=             -6.0382   XZ=              9.1054   YZ=             -1.2622

  Exact polarizability:     246.638     -11.565     205.166       0.881      -3.211     120.443
 Approx polarizability:     267.461     -15.634     283.369      -1.132      -6.608     162.347

                      1                      2                      3
                      A                      A                      A
 Frequencies --     45.8375                55.4250                90.2640
 Red. masses --      4.8631                 7.4980                 3.2751
 Frc consts  --      0.0060                 0.0136                 0.0157
 IR Inten    --      0.9871                 1.2685                 1.1930

                      4                      5                      6
                      A                      A                      A
 Frequencies --    131.2848               137.7742               169.7825
 Red. masses --      4.0671                 5.1222                 4.0972
 Frc consts  --      0.0413                 0.0573                 0.0696
 IR Inten    --      0.9928                 4.1300                 3.0216

                      7                      8                      9
                      A                      A                      A
 Frequencies --    184.8399               202.0339               248.5874
 Red. masses --      3.2283                 4.2887                 1.5464
 Frc consts  --      0.0650                 0.1031                 0.0563
 IR Inten    --      1.9578                 2.3344                 0.8367

                     10                     11                     12
                      A                      A                      A
 Frequencies --    271.0562               291.1052               306.8365
 Red. masses --      3.5549                 4.1775                 4.4135
 Frc consts  --      0.1539                 0.2086                 0.2448
 IR Inten    --      1.4487                 2.3379                 5.6964

                     13                     14                     15
                      A                      A                      A
 Frequencies --    319.9545               343.5841               354.7336
 Red. masses --      1.0834                 3.2420                 2.8194
 Frc consts  --      0.0653                 0.2255                 0.2090
 IR Inten    --      1.1898                 1.9214                14.3087

                     16                     17                     18
                      A                      A                      A
 Frequencies --    402.7049               408.0035               474.3298
 Red. masses --      2.8854                 2.0861                 4.2019
 Frc consts  --      0.2757                 0.2046                 0.5570
 IR Inten    --     10.3505                21.3170                23.2416

                     19                     20                     21
                      A                      A                      A
 Frequencies --    476.3550               492.3607               507.3533
 Red. masses --      3.7835                 2.7751                 4.3008
 Frc consts  --      0.5058                 0.3964                 0.6523
 IR Inten    --      2.9159                38.7381                 3.4953

                     22                     23                     24
                      A                      A                      A
 Frequencies --    540.1284               554.5937               565.6843
 Red. masses --      6.3542                 6.2216                 5.1675
 Frc consts  --      1.0922                 1.1275                 0.9743
 IR Inten    --      2.9589                17.9878                12.9308

                     25                     26                     27
                      A                      A                      A
 Frequencies --    584.9535               602.2883               636.3734
 Red. masses --      8.9203                 3.3304                 6.7247
 Frc consts  --      1.7983                 0.7118                 1.6045
 IR Inten    --    121.5504                 1.7628                98.4688

                     28                     29                     30
                      A                      A                      A
 Frequencies --    699.4080               750.9058               780.0541
 Red. masses --      4.7232                 1.5771                 6.3952
 Frc consts  --      1.3613                 0.5239                 2.2927
 IR Inten    --      2.8666                 2.2648                 5.4229

                     31                     32                     33
                      A                      A                      A
 Frequencies --    813.2036               816.1217               841.2088
 Red. masses --      4.3207                 1.4067                 2.9542
 Frc consts  --      1.6835                 0.5520                 1.2317
 IR Inten    --      8.3279                82.5073                 1.3298

                     34                     35                     36
                      A                      A                      A
 Frequencies --    862.1302               916.1441               955.4850
 Red. masses --      4.5979                 1.4486                 9.2806
 Frc consts  --      2.0135                 0.7164                 4.9920
 IR Inten    --      1.0191                 0.6636               258.0463

                     37                     38                     39
                      A                      A                      A
 Frequencies --    961.1157               990.8694              1002.5294
 Red. masses --      1.3234                 4.0151                 1.3294
 Frc consts  --      0.7203                 2.3226                 0.7872
 IR Inten    --      1.2849                25.5417                 0.2221

                     40                     41                     42
                      A                      A                      A
 Frequencies --   1010.1863              1080.2377              1086.0707
 Red. masses --      1.2987                 2.8441                 1.6301
 Frc consts  --      0.7809                 1.9554                 1.1329
 IR Inten    --      1.5426                43.5524                22.1424

                     43                     44                     45
                      A                      A                      A
 Frequencies --   1093.1428              1118.7930              1123.6501
 Red. masses --      1.9073                 1.8718                 1.6317
 Frc consts  --      1.3428                 1.3804                 1.2138
 IR Inten    --     75.5096               164.0253                31.2254

                     46                     47                     48
                      A                      A                      A
 Frequencies --   1135.0558              1140.7383              1178.8532
 Red. masses --      1.6137                 3.7225                 1.3087
 Frc consts  --      1.2250                 2.8540                 1.0715
 IR Inten    --     10.8010               136.8895                 1.3700

                     49                     50                     51
                      A                      A                      A
 Frequencies --   1188.1644              1203.2888              1224.6294
 Red. masses --      1.4514                 1.3193                 1.7233
 Frc consts  --      1.2072                 1.1254                 1.5227
 IR Inten    --     14.8599                 5.6254                17.9328

                     52                     53                     54
                      A                      A                      A
 Frequencies --   1237.5386              1243.7331              1255.6077
 Red. masses --      1.7234                 2.4815                 5.1596
 Frc consts  --      1.5551                 2.2616                 4.7927
 IR Inten    --      1.9115                19.4729               223.6886

                     55                     56                     57
                      A                      A                      A
 Frequencies --   1280.2598              1355.2056              1379.0598
 Red. masses --      2.7765                 2.4590                 3.2595
 Frc consts  --      2.6813                 2.6608                 3.6523
 IR Inten    --     16.1440                29.9300                 3.8039

                     58                     59                     60
                      A                      A                      A
 Frequencies --   1423.0448              1445.3481              1451.5652
 Red. masses --      5.8335                 2.4039                 1.4389
 Frc consts  --      6.9602                 2.9588                 1.7863
 IR Inten    --      0.4861                49.7974                 2.5107

                     61                     62                     63
                      A                      A                      A
 Frequencies --   1457.1813              1483.4131              1503.0373
 Red. masses --      1.9466                 1.2426                 1.0658
 Frc consts  --      2.4353                 1.6110                 1.4186
 IR Inten    --     18.9222                 1.3033                 8.8601

                     64                     65                     66
                      A                      A                      A
 Frequencies --   1510.9755              1518.9700              1526.7867
 Red. masses --      1.9348                 1.1321                 1.0819
 Frc consts  --      2.6025                 1.5390                 1.4859
 IR Inten    --     24.9871                 8.8037                12.1933

                     67                     68                     69
                      A                      A                      A
 Frequencies --   1545.2235              1569.7320              1658.8208
 Red. masses --      1.0793                 4.2849                 7.6336
 Frc consts  --      1.5184                 6.2208                12.3759
 IR Inten    --      9.4432                24.2164                 1.7377

                     70                     71                     72
                      A                      A                      A
 Frequencies --   1675.4356              1703.7824              2973.2284
 Red. masses --      5.7158                 6.6582                 1.0596
 Frc consts  --      9.4533                11.3877                 5.5189
 IR Inten    --     19.5531                 5.3009                91.9561

                     73                     74                     75
                      A                      A                      A
 Frequencies --   2988.3914              3097.4684              3098.4139
 Red. masses --      1.0573                 1.0781                 1.0772
 Frc consts  --      5.5634                 6.0945                 6.0932
 IR Inten    --    127.0508                15.7074               101.0771

                     76                     77                     78
                      A                      A                      A
 Frequencies --   3161.9646              3178.0723              3198.2654
 Red. masses --      1.1004                 1.0975                 1.0875
 Frc consts  --      6.4820                 6.5312                 6.5538
 IR Inten    --     20.9992                12.0916                26.4341

                     79                     80                     81
                      A                      A                      A
 Frequencies --   3207.4540              3224.3155              3227.7448
 Red. masses --      1.0876                 1.0913                 1.0924
 Frc consts  --      6.5924                 6.6843                 6.7055
 IR Inten    --     21.4199                 3.7712                30.3425

                     82                     83                     84
                      A                      A                      A
 Frequencies --   3234.6876              3271.4757              3511.4727
 Red. masses --      1.0935                 1.0941                 1.0731
 Frc consts  --      6.7412                 6.8992                 7.7960
 IR Inten    --     20.9319                 9.1529                 6.6096

 - Thermochemistry -
 -------------------
 Temperature   298.150 Kelvin.  Pressure   1.00000 Atm.
 Atom     1 has atomic number  6 and mass  12.00000

 Molecular mass:   249.06977 amu.
 Principal axes and moments of inertia in atomic units:
                           1         2         3
     Eigenvalues --  1825.537886742.391147949.97390
           X            0.99997  -0.00596   0.00557
           Y            0.00594   0.99997   0.00420
           Z           -0.00560  -0.00417   0.99998
 This molecule is an asymmetric top.
 Rotational symmetry number  1.
 Warning -- assumption of classical behavior for rotation
           may cause significant error
 Rotational temperatures (Kelvin)      0.04745     0.01285     0.01089
 Rotational constants (GHZ):           0.98861     0.26767     0.22701
 Zero-point vibrational energy     621866.1 (Joules/Mol)
                                  148.62956 (Kcal/Mol)
 Warning -- explicit consideration of  26 degrees of freedom as
           vibrations may cause significant error
 Vibrational temperatures:     65.95    79.74   129.87   188.89   198.23
          (Kelvin)            244.28   265.94   290.68   357.66   389.99
                              418.84   441.47   460.34   494.34   510.38
                              579.40   587.03   682.45   685.37   708.40
                              729.97   777.12   797.94   813.89   841.62
                              866.56   915.60  1006.29  1080.39  1122.32
                             1170.02  1174.22  1210.31  1240.41  1318.13
                             1374.73  1382.83  1425.64  1442.42  1453.43
                             1554.22  1562.61  1572.79  1609.69  1616.68
                             1633.09  1641.27  1696.11  1709.50  1731.26
                             1761.97  1780.54  1789.45  1806.54  1842.01
                             1949.84  1984.16  2047.44  2079.53  2088.48
                             2096.56  2134.30  2162.54  2173.96  2185.46
                             2196.71  2223.23  2258.49  2386.67  2410.58
                             2451.36  4277.81  4299.63  4456.57  4457.93
                             4549.36  4572.54  4601.59  4614.81  4639.07
                             4644.00  4653.99  4706.92  5052.23

 Zero-point correction=                           0.236856 (Hartree/Particle)
 Thermal correction to Energy=                    0.251872
 Thermal correction to Enthalpy=                  0.252816
 Thermal correction to Gibbs Free Energy=         0.194996
 Sum of electronic and zero-point Energies=          -1122.670970
 Sum of electronic and thermal Energies=             -1122.655954
 Sum of electronic and thermal Enthalpies=           -1122.655010
 Sum of electronic and thermal Free Energies=        -1122.712830

                     E (Thermal)             CV                S
                      KCal/Mol        Cal/Mol-Kelvin    Cal/Mol-Kelvin
 Total                  158.052             59.106            121.694
 Electronic               0.000              0.000              0.000
 Translational            0.889              2.981             42.438
 Rotational               0.889              2.981             32.948
 Vibrational            156.275             53.145             46.308
 Vibration     1          0.595              1.979              4.989
 Vibration     2          0.596              1.975              4.614
 Vibration     3          0.602              1.956              3.654
 Vibration     4          0.612              1.922              2.927
 Vibration     5          0.614              1.916              2.835
 Vibration     6          0.625              1.880              2.438
 Vibration     7          0.631              1.861              2.279
 Vibration     8          0.639              1.837              2.114
 Vibration     9          0.662              1.765              1.741
 Vibration    10          0.675              1.727              1.589
 Vibration    11          0.687              1.690              1.468
 Vibration    12          0.697              1.661              1.379
 Vibration    13          0.706              1.635              1.310
 Vibration    14          0.722              1.588              1.195
 Vibration    15          0.731              1.566              1.145
 Vibration    16          0.768              1.464              0.953
 Vibration    17          0.773              1.453              0.934
 Vibration    18          0.831              1.307              0.726
 Vibration    19          0.833              1.303              0.720
 Vibration    20          0.848              1.267              0.677
 Vibration    21          0.863              1.234              0.640
 Vibration    22          0.895              1.161              0.565
 Vibration    23          0.910              1.130              0.535
 Vibration    24          0.922              1.105              0.513
 Vibration    25          0.942              1.064              0.476
 Vibration    26          0.961              1.027              0.446

 Optimization completed.
    -- Stationary point found.
 Normal termination of Gaussian 16 at Sat Jul  2 11:57:48 2022.
