 Gaussian 16, Revision C.01,
 Gaussian 16:  ES64L-G16RevC.01  3-Jul-2019

 --------------------------------------------------
 #M062X/gen 6D INT(grid=ultrafine) OPT Freq=noraman
 --------------------------------------------------

 -----------
 A.5.a1.freq
 -----------
 Symbolic Z-matrix:
 Charge = -1 Multiplicity = 1

 SCF Done:  E(RM062X) =  -874.708650426     A.U. after   17 cycles
 SCF Done:  E(RM062X) =  -874.710498499     A.U. after   16 cycles
 SCF Done:  E(RM062X) =  -874.711182224     A.U. after   16 cycles
 SCF Done:  E(RM062X) =  -874.711386091     A.U. after   17 cycles
 SCF Done:  E(RM062X) =  -874.711502345     A.U. after   17 cycles
 SCF Done:  E(RM062X) =  -874.711531451     A.U. after   16 cycles
 SCF Done:  E(RM062X) =  -874.711537617     A.U. after   14 cycles
 Optimization completed.
    -- Stationary point found.
 Normal termination of Gaussian 16 at Fri May 20 19:38:33 2022.

 ------------------------------------------------------------------
 #N Geom=AllCheck Guess=TCheck SCRF=Check GenChk RM062X/ChkBas Freq
 ------------------------------------------------------------------

 Structure from the checkpoint file:  "/jobfs/40763740.gadi-pbs/Gau-123937.chk"
 -----------
 A.5.a1.freq
 -----------
 Charge = -1 Multiplicity = 1

                         Standard orientation:
 ---------------------------------------------------------------------
 Center     Atomic      Atomic             Coordinates (Angstroms)
 Number     Number       Type             X           Y           Z
 ---------------------------------------------------------------------
      1          6           0        0.159946    0.003766   -0.065040
      2          6           0       -0.540229    1.206232   -0.027320
      3          1           0        0.021491    2.136286   -0.042568
      4          6           0       -1.934260    1.202030    0.017624
      5          1           0       -2.475898    2.146736    0.045023
      6          6           0       -2.652412    0.003101    0.023097
      7          6           0       -4.162220   -0.006096    0.056010
      8          6           0       -1.934838   -1.197384   -0.021596
      9          1           0       -2.477867   -2.142395   -0.028240
     10          6           0       -0.542305   -1.200594   -0.064689
     11          1           0        0.018208   -2.130179   -0.119255
     12         16           0        1.982420    0.011514   -0.019061
     13          8           0        2.322004   -1.275580   -0.680772
     14          8           0        2.320132    1.246676   -0.752150
     15          7           0        2.423168    0.119134    1.480665
     16          1           0        2.413341   -0.834437    1.848913
     17          1           0       -4.540175   -0.625302    0.877843
     18          1           0       -4.559655    1.005391    0.188150
     19          1           0       -4.579517   -0.409354   -0.874670
 ---------------------------------------------------------------------

 SCF Done:  E(RM062X) =  -874.711537617     A.U. after    1 cycles

 The electronic state is 1-A.
 Alpha  occ. eigenvalues --  -89.96363 -19.44677 -19.44478 -14.55032 -10.45741
 Alpha  occ. eigenvalues --  -10.45419 -10.44252 -10.44231 -10.43524 -10.43355
 Alpha  occ. eigenvalues --  -10.43266  -8.27208  -6.19435  -6.19375  -6.19292
 Alpha  occ. eigenvalues --   -1.03691  -0.92204  -0.85009  -0.79092  -0.76291
 Alpha  occ. eigenvalues --   -0.72704  -0.67662  -0.57639  -0.56645  -0.51412
 Alpha  occ. eigenvalues --   -0.45592  -0.42361  -0.41118  -0.39819  -0.38817
 Alpha  occ. eigenvalues --   -0.37760  -0.37163  -0.35685  -0.34133  -0.31254
 Alpha  occ. eigenvalues --   -0.30714  -0.28268  -0.24951  -0.21664  -0.20373
 Alpha  occ. eigenvalues --   -0.19308  -0.19079  -0.17353  -0.15364  -0.12146
 Alpha virt. eigenvalues --    0.09576   0.11934   0.12038   0.12290   0.13182
 Alpha virt. eigenvalues --    0.14867   0.15161   0.15369   0.16951   0.17668
 Alpha virt. eigenvalues --    0.18523   0.19063   0.20089   0.20807   0.21086

 Mulliken charges:
               1
     1  C   -1.230486
     2  C   -0.352859
     3  H    0.235471
     4  C   -0.671570
     5  H    0.172221
     6  C    0.132782
     7  C   -0.661128
     8  C    0.058214
     9  H    0.173580
    10  C    0.622992
    11  H    0.231365
    12  S    1.410518
    13  O   -0.650310
    14  O   -0.619493
    15  N   -0.813138
    16  H    0.332543
    17  H    0.212828
    18  H    0.198331
    19  H    0.218138
 Sum of Mulliken charges =  -1.00000

 Dipole moment (field-independent basis, Debye):
    X=            -10.6870    Y=             -1.3320    Z=              0.3823  Tot=             10.7764
 Quadrupole moment (field-independent basis, Debye-Ang):
   XX=           -107.3045   YY=            -79.2992   ZZ=            -85.8355
   XY=             -3.5436   XZ=              0.5792   YZ=             -3.2513

  Exact polarizability:     162.766       0.586     117.472       4.848       0.590      86.867
 Approx polarizability:     170.744       1.584     161.952       3.485       1.046     111.497

                      1                      2                      3
                      A                      A                      A
 Frequencies --     15.3579                24.0795                85.7066
 Red. masses --      1.0981                 4.1194                 4.4038
 Frc consts  --      0.0002                 0.0014                 0.0191
 IR Inten    --      0.0189                 0.5156                 0.4032

                      4                      5                      6
                      A                      A                      A
 Frequencies --    163.0024               202.8582               275.6668
 Red. masses --      5.8121                 4.0244                 8.2405
 Frc consts  --      0.0910                 0.0976                 0.3690
 IR Inten    --      2.2842                 0.3658                 5.7855

                      7                      8                      9
                      A                      A                      A
 Frequencies --    297.2036               340.1346               362.0604
 Red. masses --      2.7239                 3.5354                 2.7751
 Frc consts  --      0.1418                 0.2410                 0.2143
 IR Inten    --     22.4531                 8.9484                14.4657

                     10                     11                     12
                      A                      A                      A
 Frequencies --    413.8678               442.2853               474.5795
 Red. masses --      2.9129                 2.1753                 4.1640
 Frc consts  --      0.2940                 0.2507                 0.5526
 IR Inten    --      0.0472                33.6821                10.0843

                     13                     14                     15
                      A                      A                      A
 Frequencies --    500.7359               546.3298               567.1640
 Red. masses --      3.9639                 4.7085                 6.3632
 Frc consts  --      0.5856                 0.8280                 1.2060
 IR Inten    --     34.8222                57.9264                63.6068

                     16                     17                     18
                      A                      A                      A
 Frequencies --    647.8289               656.0074               726.3198
 Red. masses --      6.9423                 7.7586                 3.3227
 Frc consts  --      1.7166                 1.9672                 1.0328
 IR Inten    --      2.7478               110.0921                 6.4979

                     19                     20                     21
                      A                      A                      A
 Frequencies --    819.0714               837.1080               862.5802
 Red. masses --      5.0108                 1.4395                 1.2539
 Frc consts  --      1.9806                 0.5943                 0.5497
 IR Inten    --      5.7513                25.8192                 0.0653

                     22                     23                     24
                      A                      A                      A
 Frequencies --    955.9126               979.6541               996.9254
 Red. masses --     13.4101                 1.3202                 1.3618
 Frc consts  --      7.2197                 0.7465                 0.7974
 IR Inten    --    246.6296                 1.4607                 0.0877

                     25                     26                     27
                      A                      A                      A
 Frequencies --   1010.5600              1040.1899              1067.6951
 Red. masses --      1.4025                 3.2414                 1.5056
 Frc consts  --      0.8439                 2.0664                 1.0112
 IR Inten    --      3.4205                 3.9013                 2.7710

                     28                     29                     30
                      A                      A                      A
 Frequencies --   1113.2388              1129.6462              1134.5681
 Red. masses --      3.2504                 1.2927                 1.9480
 Frc consts  --      2.3733                 0.9719                 1.4774
 IR Inten    --    261.8896                19.0547                20.5976

                     31                     32                     33
                      A                      A                      A
 Frequencies --   1145.0904              1201.2182              1245.8126
 Red. masses --      3.3813                 1.1555                 2.7323
 Frc consts  --      2.6122                 0.9824                 2.4985
 IR Inten    --    139.4813                 1.2774                 0.6484

                     34                     35                     36
                      A                      A                      A
 Frequencies --   1262.4061              1322.4659              1338.1134
 Red. masses --      5.7101                 1.3479                 6.3768
 Frc consts  --      5.3616                 1.3889                 6.7273
 IR Inten    --    216.1797                 0.0937                 5.8951

                     37                     38                     39
                      A                      A                      A
 Frequencies --   1428.8068              1443.8480              1511.0769
 Red. masses --      1.2795                 2.8114                 1.0450
 Frc consts  --      1.5390                 3.4532                 1.4059
 IR Inten    --      0.1442                 3.9418                 5.3161

                     40                     41                     42
                      A                      A                      A
 Frequencies --   1520.2276              1547.6376              1655.7092
 Red. masses --      1.0892                 2.6718                 6.7823
 Frc consts  --      1.4831                 3.7705                10.9545
 IR Inten    --     11.1691                12.6191                 1.3180

                     43                     44                     45
                      A                      A                      A
 Frequencies --   1682.9859              3062.5210              3117.9252
 Red. masses --      6.2487                 1.0366                 1.1007
 Frc consts  --     10.4279                 5.7283                 6.3043
 IR Inten    --      0.4595                66.3832                25.3510

                     46                     47                     48
                      A                      A                      A
 Frequencies --   3142.4656              3176.6862              3184.0352
 Red. masses --      1.1010                 1.0890                 1.0890
 Frc consts  --      6.4057                 6.4748                 6.5049
 IR Inten    --     22.6866                40.1647                37.3313

                     49                     50                     51
                      A                      A                      A
 Frequencies --   3228.9531              3233.0305              3501.3610
 Red. masses --      1.0919                 1.0924                 1.0730
 Frc consts  --      6.7074                 6.7273                 7.7505
 IR Inten    --      6.7000                 5.2364                 5.0009

 - Thermochemistry -
 -------------------
 Temperature   298.150 Kelvin.  Pressure   1.00000 Atm.
 Atom     1 has atomic number  6 and mass  12.00000

 Molecular mass:   170.02758 amu.
 Principal axes and moments of inertia in atomic units:
                           1         2         3
     Eigenvalues --   690.843223219.786203536.86479
           X            0.99999  -0.00246   0.00423
           Y            0.00252   0.99990  -0.01388
           Z           -0.00420   0.01389   0.99989
 This molecule is an asymmetric top.
 Rotational symmetry number  1.
 Warning -- assumption of classical behavior for rotation
           may cause significant error
 Rotational temperatures (Kelvin)      0.12537     0.02690     0.02449
 Rotational constants (GHZ):           2.61237     0.56052     0.51027
 Zero-point vibrational energy     374674.7 (Joules/Mol)
                                   89.54940 (Kcal/Mol)
 Warning -- explicit consideration of  15 degrees of freedom as
           vibrations may cause significant error
 Vibrational temperatures:     22.10    34.65   123.31   234.52   291.87
          (Kelvin)            396.62   427.61   489.38   520.92   595.46
                              636.35   682.81   720.45   786.05   816.02
                              932.08   943.85  1045.01  1178.46  1204.41
                             1241.06  1375.35  1409.50  1434.35  1453.97
                             1496.60  1536.18  1601.70  1625.31  1632.39
                             1647.53  1728.29  1792.45  1816.32  1902.73
                             1925.25  2055.73  2077.38  2174.10  2187.27
                             2226.71  2382.20  2421.44  4406.28  4486.00
                             4521.31  4570.54  4581.12  4645.74  4651.61
                             5037.68

 Zero-point correction=                           0.142706 (Hartree/Particle)
 Thermal correction to Energy=                    0.153251
 Thermal correction to Enthalpy=                  0.154195
 Thermal correction to Gibbs Free Energy=         0.104029
 Sum of electronic and zero-point Energies=           -874.568832
 Sum of electronic and thermal Energies=              -874.558287
 Sum of electronic and thermal Enthalpies=            -874.557343
 Sum of electronic and thermal Free Energies=         -874.607509

                     E (Thermal)             CV                S
                      KCal/Mol        Cal/Mol-Kelvin    Cal/Mol-Kelvin
 Total                   96.166             38.703            105.583
 Electronic               0.000              0.000              0.000
 Translational            0.889              2.981             41.300
 Rotational               0.889              2.981             30.443
 Vibrational             94.389             32.741             33.840
 Vibration     1          0.593              1.986              7.159
 Vibration     2          0.593              1.985              6.266
 Vibration     3          0.601              1.959              3.756
 Vibration     4          0.623              1.888              2.515
 Vibration     5          0.639              1.836              2.107
 Vibration     6          0.677              1.718              1.560
 Vibration     7          0.691              1.679              1.433
 Vibration     8          0.720              1.595              1.212
 Vibration     9          0.736              1.550              1.113
 Vibration    10          0.777              1.440              0.913
 Vibration    11          0.802              1.378              0.819
 Vibration    12          0.831              1.306              0.725
 Vibration    13          0.856              1.248              0.656
 Vibration    14          0.902              1.148              0.552
 Vibration    15          0.923              1.102              0.510

                           ! Non-Optimized Parameters !
 Normal termination of Gaussian 16 at Fri May 20 19:41:26 2022.
