 Gaussian 16, Revision C.01,
 Gaussian 16:  ES64L-G16RevC.01  3-Jul-2019

 --------------------------------------------------
 #M062X/gen 6D INT(grid=ultrafine) OPT Freq=noraman
 --------------------------------------------------

 -----------
 A.6.a1.freq
 -----------
 Symbolic Z-matrix:
 Charge = -1 Multiplicity = 1

 SCF Done:  E(RM062X) =  -934.629515574     A.U. after   17 cycles
 SCF Done:  E(RM062X) =  -934.631399219     A.U. after   14 cycles
 SCF Done:  E(RM062X) =  -934.632091432     A.U. after   16 cycles
 SCF Done:  E(RM062X) =  -934.632316694     A.U. after   16 cycles
 SCF Done:  E(RM062X) =  -934.632445100     A.U. after   17 cycles
 SCF Done:  E(RM062X) =  -934.632482158     A.U. after   16 cycles
 SCF Done:  E(RM062X) =  -934.632491605     A.U. after   15 cycles
 SCF Done:  E(RM062X) =  -934.632492263     A.U. after   12 cycles
 SCF Done:  E(RM062X) =  -934.632492883     A.U. after   13 cycles
 SCF Done:  E(RM062X) =  -934.632492985     A.U. after   13 cycles
 SCF Done:  E(RM062X) =  -934.632492974     A.U. after   11 cycles
 Optimization completed.
    -- Stationary point found.
 Normal termination of Gaussian 16 at Fri May 20 19:40:42 2022.

 ------------------------------------------------------------------
 #N Geom=AllCheck Guess=TCheck SCRF=Check GenChk RM062X/ChkBas Freq
 ------------------------------------------------------------------

 Structure from the checkpoint file:  "/jobfs/40764005.gadi-pbs/Gau-796681.chk"
 -----------
 A.6.a1.freq
 -----------
 Charge = -1 Multiplicity = 1

                         Standard orientation:
 ---------------------------------------------------------------------
 Center     Atomic      Atomic             Coordinates (Angstroms)
 Number     Number       Type             X           Y           Z
 ---------------------------------------------------------------------
      1          6           0        0.121869   -0.007739   -0.062289
      2          6           0       -0.572097    1.202135   -0.029030
      3          1           0       -0.004635    2.128525   -0.045219
      4          6           0       -1.964495    1.216143    0.013625
      5          1           0       -2.531749    2.141741    0.036539
      6          6           0       -2.634645    0.001137    0.021975
      7          6           0       -1.975270   -1.215441   -0.016851
      8          1           0       -2.548805   -2.137527   -0.020372
      9          6           0       -0.578767   -1.210618   -0.058843
     10          1           0       -0.016524   -2.138772   -0.109433
     11         16           0        1.945990    0.008319   -0.021100
     12          8           0        2.283148   -1.349515   -0.522071
     13          8           0        2.273925    1.145880   -0.900859
     14          7           0        2.387538    0.302491    1.451228
     15          1           0        2.381119   -0.595937    1.938587
     16          9           0       -3.996019    0.007424    0.061202
 ---------------------------------------------------------------------

 SCF Done:  E(RM062X) =  -934.632492974     A.U. after    1 cycles

 The electronic state is 1-A.
 Alpha  occ. eigenvalues --  -89.97032 -25.17675 -19.45335 -19.45065 -14.55629
 Alpha  occ. eigenvalues --  -10.53237 -10.45556 -10.45521 -10.44856 -10.44841
 Alpha  occ. eigenvalues --  -10.44125  -8.27870  -6.20096  -6.20040  -6.19955
 Alpha  occ. eigenvalues --   -1.26640  -1.04353  -0.92859  -0.85969  -0.79695
 Alpha  occ. eigenvalues --   -0.74555  -0.73739  -0.60162  -0.60091  -0.52551
 Alpha  occ. eigenvalues --   -0.51830  -0.46635  -0.46199  -0.44439  -0.40957
 Alpha  occ. eigenvalues --   -0.39272  -0.39097  -0.37638  -0.35069  -0.34950
 Alpha  occ. eigenvalues --   -0.32482  -0.29750  -0.25576  -0.22272  -0.21350
 Alpha  occ. eigenvalues --   -0.20484  -0.19835  -0.18122  -0.16000  -0.12842
 Alpha virt. eigenvalues --    0.11042   0.12291   0.12445   0.12988   0.13168
 Alpha virt. eigenvalues --    0.15506   0.16222   0.16663   0.18187   0.19022
 Alpha virt. eigenvalues --    0.19128   0.19415   0.19923   0.21724   0.22552

 Mulliken charges:
               1
     1  C   -0.740839
     2  C   -0.384838
     3  H    0.241741
     4  C    0.058562
     5  H    0.201910
     6  C    0.041573
     7  C    0.032051
     8  H    0.200757
     9  C    0.001748
    10  H    0.243705
    11  S    1.265762
    12  O   -0.679863
    13  O   -0.622389
    14  N   -0.832909
    15  H    0.333318
    16  F   -0.360289
 Sum of Mulliken charges =  -1.00000

 Dipole moment (field-independent basis, Debye):
    X=             -8.5261    Y=             -1.2664    Z=              0.5501  Tot=              8.6372
 Quadrupole moment (field-independent basis, Debye-Ang):
   XX=           -114.0078   YY=            -75.5755   ZZ=            -81.7387
   XY=             -3.5293   XZ=              1.3024   YZ=             -3.1006

  Exact polarizability:     138.391       0.889     108.022       4.418       1.015      76.761
 Approx polarizability:     153.923       1.721     148.561       2.959       1.267      98.466

                      1                      2                      3
                      A                      A                      A
 Frequencies --     19.7689                89.7718               163.5938
 Red. masses --      5.1243                 8.8348                 8.8477
 Frc consts  --      0.0012                 0.0419                 0.1395
 IR Inten    --      0.6665                 2.2754                 3.5571

                      4                      5                      6
                      A                      A                      A
 Frequencies --    217.0143               270.9663               317.8515
 Red. masses --      6.0625                12.3521                 3.5329
 Frc consts  --      0.1682                 0.5343                 0.2103
 IR Inten    --      1.5002                 2.3917                23.5156

                      7                      8                      9
                      A                      A                      A
 Frequencies --    365.8911               407.1033               422.2092
 Red. masses --      6.1332                 4.0299                 3.0123
 Frc consts  --      0.4838                 0.3935                 0.3164
 IR Inten    --      3.8348                13.9834                 0.1445

                     10                     11                     12
                      A                      A                      A
 Frequencies --    457.7913               486.9970               506.3395
 Red. masses --      2.3504                 3.4887                 4.0731
 Frc consts  --      0.2902                 0.4875                 0.6153
 IR Inten    --     31.7097                20.4168                32.6310

                     13                     14                     15
                      A                      A                      A
 Frequencies --    545.4324               564.7776               640.5510
 Red. masses --      4.5083                 6.6444                 7.2042
 Frc consts  --      0.7902                 1.2487                 1.7416
 IR Inten    --     73.7215                91.4525                 0.0947

                     16                     17                     18
                      A                      A                      A
 Frequencies --    656.5103               721.9924               836.6088
 Red. masses --     10.6617                 4.0997                 1.3105
 Frc consts  --      2.7074                 1.2591                 0.5404
 IR Inten    --     65.6011                 3.9429                 2.8005

                     19                     20                     21
                      A                      A                      A
 Frequencies --    837.9458               854.4662               960.7467
 Red. masses --      5.3825                 1.6067                12.2592
 Frc consts  --      2.2267                 0.6911                 6.6670
 IR Inten    --     41.9620                46.0831               240.6323

                     22                     23                     24
                      A                      A                      A
 Frequencies --    971.5794               993.9868              1038.0846
 Red. masses --      1.3441                 1.3431                 2.7103
 Frc consts  --      0.7476                 0.7819                 1.7208
 IR Inten    --      7.3106                 0.3027                 2.5285

                     25                     26                     27
                      A                      A                      A
 Frequencies --   1107.0498              1115.3515              1130.7790
 Red. masses --      1.2976                 2.7917                 2.2160
 Frc consts  --      0.9370                 2.0462                 1.6694
 IR Inten    --     31.7841               213.0283                50.7741

                     28                     29                     30
                      A                      A                      A
 Frequencies --   1147.9534              1172.7808              1259.9022
 Red. masses --      3.2302                 1.1517                 4.1132
 Frc consts  --      2.5080                 0.9333                 3.8468
 IR Inten    --    148.1331                17.9745               112.5900

                     31                     32                     33
                      A                      A                      A
 Frequencies --   1263.9395              1306.1121              1339.8416
 Red. masses --      5.3360                 1.2887                10.5560
 Frc consts  --      5.0225                 1.2952                11.1649
 IR Inten    --    210.8391                 2.0290                 7.3816

                     34                     35                     36
                      A                      A                      A
 Frequencies --   1443.7492              1544.0878              1673.5937
 Red. masses --      3.4892                 2.7927                 6.5288
 Frc consts  --      4.2850                 3.9230                10.7742
 IR Inten    --      2.3322                87.6247                33.0593

                     37                     38                     39
                      A                      A                      A
 Frequencies --   1681.8745              3226.7260              3228.3452
 Red. masses --      8.0399                 1.0880                 1.0886
 Frc consts  --     13.3994                 6.6741                 6.6846
 IR Inten    --     16.7066                 6.2734                 3.8959

                     40                     41                     42
                      A                      A                      A
 Frequencies --   3239.9206              3241.3422              3506.3054
 Red. masses --      1.0947                 1.0951                 1.0731
 Frc consts  --      6.7703                 6.7787                 7.7730
 IR Inten    --      8.6359                15.5644                 4.8841

 - Thermochemistry -
 -------------------
 Temperature   298.150 Kelvin.  Pressure   1.00000 Atm.
 Atom     1 has atomic number  6 and mass  12.00000

 Molecular mass:   174.00250 amu.
 Principal axes and moments of inertia in atomic units:
                           1         2         3
     Eigenvalues --   683.373823301.162433621.88506
           X            0.99998  -0.00176   0.00581
           Y            0.00182   0.99995  -0.01009
           Z           -0.00580   0.01010   0.99993
 This molecule is an asymmetric top.
 Rotational symmetry number  1.
 Warning -- assumption of classical behavior for rotation
           may cause significant error
 Rotational temperatures (Kelvin)      0.12674     0.02624     0.02391
 Rotational constants (GHZ):           2.64093     0.54670     0.49829
 Zero-point vibrational energy     280988.7 (Joules/Mol)
                                   67.15790 (Kcal/Mol)
 Warning -- explicit consideration of  14 degrees of freedom as
           vibrations may cause significant error
 Vibrational temperatures:     28.44   129.16   235.37   312.24   389.86
          (Kelvin)            457.32   526.44   585.73   607.46   658.66
                              700.68   728.51   784.76   812.59   921.61
                              944.57  1038.79  1203.69  1205.62  1229.39
                             1382.30  1397.89  1430.13  1493.57  1592.80
                             1604.74  1626.94  1651.65  1687.37  1812.72
                             1818.53  1879.20  1927.73  2077.23  2221.60
                             2407.93  2419.84  4642.54  4644.87  4661.52
                             4663.57  5044.79

 Zero-point correction=                           0.107023 (Hartree/Particle)
 Thermal correction to Energy=                    0.116438
 Thermal correction to Enthalpy=                  0.117382
 Thermal correction to Gibbs Free Energy=         0.070804
 Sum of electronic and zero-point Energies=           -934.525470
 Sum of electronic and thermal Energies=              -934.516055
 Sum of electronic and thermal Enthalpies=            -934.515111
 Sum of electronic and thermal Free Energies=         -934.561689

                     E (Thermal)             CV                S
                      KCal/Mol        Cal/Mol-Kelvin    Cal/Mol-Kelvin
 Total                   73.066             35.563             98.033
 Electronic               0.000              0.000              0.000
 Translational            0.889              2.981             41.369
 Rotational               0.889              2.981             30.481
 Vibrational             71.289             29.601             26.183
 Vibration     1          0.593              1.986              6.657
 Vibration     2          0.602              1.956              3.665
 Vibration     3          0.623              1.887              2.508
 Vibration     4          0.646              1.815              1.984
 Vibration     5          0.675              1.727              1.590
 Vibration     6          0.704              1.639              1.321
 Vibration     7          0.739              1.542              1.097
 Vibration     8          0.772              1.455              0.937
 Vibration     9          0.785              1.422              0.884
 Vibration    10          0.816              1.344              0.773
 Vibration    11          0.843              1.279              0.691
 Vibration    12          0.862              1.236              0.642
 Vibration    13          0.901              1.150              0.554
 Vibration    14          0.921              1.107              0.514

 Optimization completed.
    -- Stationary point found.
 Normal termination of Gaussian 16 at Fri May 20 19:43:03 2022.
