 Gaussian 16, Revision C.01,
 Gaussian 16:  ES64L-G16RevC.01  3-Jul-2019

 --------------------------------------------------
 #M062X/gen 6D INT(grid=ultrafine) OPT Freq=noraman
 --------------------------------------------------

 -----------
 A.7.a1.freq
 -----------
 Symbolic Z-matrix:
 Charge = -1 Multiplicity = 1

 SCF Done:  E(RM062X) =  -1033.83025501     A.U. after   15 cycles
 SCF Done:  E(RM062X) =  -1033.83233335     A.U. after   15 cycles
 SCF Done:  E(RM062X) =  -1033.83282918     A.U. after   15 cycles
 SCF Done:  E(RM062X) =  -1033.83291418     A.U. after   14 cycles
 SCF Done:  E(RM062X) =  -1033.83293433     A.U. after   12 cycles
 SCF Done:  E(RM062X) =  -1033.83293913     A.U. after   12 cycles
 SCF Done:  E(RM062X) =  -1033.83294498     A.U. after   12 cycles
 SCF Done:  E(RM062X) =  -1033.83294591     A.U. after   12 cycles
 SCF Done:  E(RM062X) =  -1033.83294600     A.U. after   10 cycles
 Optimization completed.
    -- Stationary point found.
 Normal termination of Gaussian 16 at Fri May 20 19:47:28 2022.

 ------------------------------------------------------------------
 #N Geom=AllCheck Guess=TCheck SCRF=Check GenChk RM062X/ChkBas Freq
 ------------------------------------------------------------------

 Structure from the checkpoint file:  "/jobfs/40765450.gadi-pbs/Gau-4046190.chk"
 -----------
 A.7.a1.freq
 -----------
 Charge = -1 Multiplicity = 1

                         Standard orientation:
 ---------------------------------------------------------------------
 Center     Atomic      Atomic             Coordinates (Angstroms)
 Number     Number       Type             X           Y           Z
 ---------------------------------------------------------------------
      1          6           0        0.203682    0.055009    0.003699
      2          6           0        1.053538    1.158210   -0.012143
      3          9           0        0.559209    2.405874   -0.003885
      4          6           0        2.443990    1.057039   -0.029812
      5          1           0        3.031564    1.969355   -0.041379
      6          6           0        3.034207   -0.201041   -0.027749
      7          6           0        2.232904   -1.341000   -0.008622
      8          1           0        2.647999   -2.343400   -0.005884
      9          6           0        0.855983   -1.177104    0.007816
     10          9           0        0.111203   -2.301220    0.018877
     11         16           0       -1.661555    0.086248    0.014161
     12          8           0       -1.923236   -0.553012    1.322220
     13          8           0       -1.973007    1.513545   -0.099756
     14          7           0       -2.131969   -0.706891   -1.238667
     15          1           0       -2.096683   -1.694928   -0.981824
     16          1           0        4.116185   -0.295590   -0.040597
 ---------------------------------------------------------------------

 SCF Done:  E(RM062X) =  -1033.83294600     A.U. after    1 cycles

 The electronic state is 1-A.
 Alpha  occ. eigenvalues --  -89.97807 -25.16325 -25.15454 -19.45450 -19.45326
 Alpha  occ. eigenvalues --  -14.55944 -10.53420 -10.53390 -10.46797 -10.45660
 Alpha  occ. eigenvalues --  -10.45575 -10.45079  -8.28526  -6.20737  -6.20727
 Alpha  occ. eigenvalues --   -6.20608  -1.25801  -1.25134  -1.04905  -0.93253
 Alpha  occ. eigenvalues --   -0.86699  -0.80352  -0.75124  -0.74345  -0.61657
 Alpha  occ. eigenvalues --   -0.60393  -0.54342  -0.51915  -0.49109  -0.46195
 Alpha  occ. eigenvalues --   -0.45428  -0.45157  -0.44105  -0.42629  -0.40831
 Alpha  occ. eigenvalues --   -0.38756  -0.35688  -0.35545  -0.33755  -0.33167
 Alpha  occ. eigenvalues --   -0.32113  -0.25750  -0.22985  -0.21362  -0.20260
 Alpha  occ. eigenvalues --   -0.19235  -0.18487  -0.16295  -0.13694
 Alpha virt. eigenvalues --    0.10153   0.11866   0.12140   0.12944   0.13279
 Alpha virt. eigenvalues --    0.15447   0.15868   0.16220   0.18054   0.18741
 Alpha virt. eigenvalues --    0.18992   0.19226   0.20401   0.21992   0.22579

 Mulliken charges:
               1
     1  C   -0.980375
     2  C    0.022744
     3  F   -0.312639
     4  C    0.006837
     5  H    0.200428
     6  C   -0.205697
     7  C   -0.006557
     8  H    0.201573
     9  C    0.616731
    10  F   -0.349930
    11  S    1.297750
    12  O   -0.588789
    13  O   -0.641864
    14  N   -0.797944
    15  H    0.349127
    16  H    0.188607
 Sum of Mulliken charges =  -1.00000

 Dipole moment (field-independent basis, Debye):
    X=              9.5053    Y=             -1.7127    Z=              0.2232  Tot=              9.6609
 Quadrupole moment (field-independent basis, Debye-Ang):
   XX=            -95.5502   YY=            -85.7412   ZZ=            -89.1350
   XY=              2.7373   XZ=             -1.3242   YZ=              1.3762

  Exact polarizability:     140.488       2.124     111.497       3.223       1.449      75.700
 Approx polarizability:     155.146       2.819     153.460       2.723       0.662      99.081

                      1                      2                      3
                      A                      A                      A
 Frequencies --     35.1323                83.5540               165.7130
 Red. masses --     10.3204                 8.0885                10.9934
 Frc consts  --      0.0075                 0.0333                 0.1779
 IR Inten    --      0.2890                 0.0982                 0.2003

                      4                      5                      6
                      A                      A                      A
 Frequencies --    195.4225               238.8273               243.5494
 Red. masses --     12.1018                13.3005                 4.7597
 Frc consts  --      0.2723                 0.4470                 0.1663
 IR Inten    --      0.1226                 0.5968                 0.0301

                      7                      8                      9
                      A                      A                      A
 Frequencies --    265.2983               352.9951               376.8412
 Red. masses --      7.2350                 7.2638                13.4227
 Frc consts  --      0.3000                 0.5333                 1.1231
 IR Inten    --      2.4986                 1.1072                 0.9770

                     10                     11                     12
                      A                      A                      A
 Frequencies --    438.5860               491.7993               522.4834
 Red. masses --      2.9911                 8.3729                 7.0492
 Frc consts  --      0.3390                 1.1932                 1.1338
 IR Inten    --     31.9118                12.2720                 5.0579

                     13                     14                     15
                      A                      A                      A
 Frequencies --    541.1216               545.5034               561.0502
 Red. masses --      1.5207                 7.4674                 5.4771
 Frc consts  --      0.2623                 1.3092                 1.0158
 IR Inten    --     34.6046                96.0548                 0.8651

                     16                     17                     18
                      A                      A                      A
 Frequencies --    569.6201               615.5814               618.1979
 Red. masses --      5.7635                 7.9388                 6.2105
 Frc consts  --      1.1018                 1.7725                 1.3984
 IR Inten    --     10.1874               106.7471                73.9148

                     19                     20                     21
                      A                      A                      A
 Frequencies --    735.5195               778.9544               805.0680
 Red. masses --      1.9854                 7.8947                 2.3352
 Frc consts  --      0.6328                 2.8223                 0.8917
 IR Inten    --     15.8733                13.7896                62.9548

                     22                     23                     24
                      A                      A                      A
 Frequencies --    890.3080               969.4779               972.4097
 Red. masses --      1.4473                 1.2825                13.3401
 Frc consts  --      0.6759                 0.7102                 7.4320
 IR Inten    --      0.0192                 2.4889               194.4502

                     25                     26                     27
                      A                      A                      A
 Frequencies --   1035.0058              1074.4591              1122.1755
 Red. masses --      4.6299                 4.8313                 1.6008
 Frc consts  --      2.9222                 3.2862                 1.1877
 IR Inten    --     72.7045                 5.6153                22.4434

                     28                     29                     30
                      A                      A                      A
 Frequencies --   1139.2967              1168.0722              1172.5207
 Red. masses --      1.6648                 4.5575                 1.1739
 Frc consts  --      1.2731                 3.6636                 0.9509
 IR Inten    --    203.7937               204.8123                 0.9721

                     31                     32                     33
                      A                      A                      A
 Frequencies --   1257.4987              1298.9909              1326.8381
 Red. masses --      2.2226                 4.6035                 6.9339
 Frc consts  --      2.0707                 4.5767                 7.1922
 IR Inten    --     26.3066               228.2224                37.9806

                     34                     35                     36
                      A                      A                      A
 Frequencies --   1348.6907              1495.9853              1513.3126
 Red. masses --      7.9311                 4.0803                 3.2238
 Frc consts  --      8.4998                 5.3802                 4.3499
 IR Inten    --     34.0640                12.9087               154.2458

                     37                     38                     39
                      A                      A                      A
 Frequencies --   1664.6251              1682.1690              3217.5824
 Red. masses --      7.6353                 7.5826                 1.0870
 Frc consts  --     12.4655                12.6417                 6.6306
 IR Inten    --    110.4310                42.2458                 8.6553

                     40                     41                     42
                      A                      A                      A
 Frequencies --   3239.6254              3245.4627              3523.0209
 Red. masses --      1.0921                 1.0969                 1.0727
 Frc consts  --      6.7531                 6.8072                 7.8445
 IR Inten    --     15.4257                14.6434                 7.1308

 - Thermochemistry -
 -------------------
 Temperature   298.150 Kelvin.  Pressure   1.00000 Atm.
 Atom     1 has atomic number  6 and mass  12.00000

 Molecular mass:   191.99308 amu.
 Principal axes and moments of inertia in atomic units:
                           1         2         3
     Eigenvalues --  1394.774372258.004913291.39805
           X            0.99999   0.00365   0.00317
           Y           -0.00367   0.99998   0.00573
           Z           -0.00315  -0.00574   0.99998
 This molecule is an asymmetric top.
 Rotational symmetry number  1.
 Warning -- assumption of classical behavior for rotation
           may cause significant error
 Rotational temperatures (Kelvin)      0.06210     0.03836     0.02632
 Rotational constants (GHZ):           1.29393     0.79926     0.54832
 Zero-point vibrational energy     260417.1 (Joules/Mol)
                                   62.24119 (Kcal/Mol)
 Warning -- explicit consideration of  18 degrees of freedom as
           vibrations may cause significant error
 Vibrational temperatures:     50.55   120.22   238.42   281.17   343.62
          (Kelvin)            350.41   381.71   507.88   542.19   631.03
                              707.59   751.74   778.55   784.86   807.23
                              819.56   885.68   889.45  1058.25  1120.74
                             1158.31  1280.95  1394.86  1399.08  1489.14
                             1545.91  1614.56  1639.19  1680.60  1687.00
                             1809.26  1868.96  1909.02  1940.47  2152.39
                             2177.32  2395.02  2420.27  4629.38  4661.10
                             4669.50  5068.84

 Zero-point correction=                           0.099188 (Hartree/Particle)
 Thermal correction to Energy=                    0.109352
 Thermal correction to Enthalpy=                  0.110297
 Thermal correction to Gibbs Free Energy=         0.062581
 Sum of electronic and zero-point Energies=          -1033.733758
 Sum of electronic and thermal Energies=             -1033.723594
 Sum of electronic and thermal Enthalpies=           -1033.722649
 Sum of electronic and thermal Free Energies=        -1033.770365

                     E (Thermal)             CV                S
                      KCal/Mol        Cal/Mol-Kelvin    Cal/Mol-Kelvin
 Total                   68.620             38.219            100.426
 Electronic               0.000              0.000              0.000
 Translational            0.889              2.981             41.662
 Rotational               0.889              2.981             30.717
 Vibrational             66.842             32.258             28.047
 Vibration     1          0.594              1.982              5.516
 Vibration     2          0.600              1.960              3.806
 Vibration     3          0.624              1.885              2.484
 Vibration     4          0.636              1.846              2.176
 Vibration     5          0.657              1.781              1.812
 Vibration     6          0.659              1.773              1.777
 Vibration     7          0.671              1.737              1.627
 Vibration     8          0.729              1.569              1.153
 Vibration     9          0.747              1.519              1.052
 Vibration    10          0.799              1.386              0.831
 Vibration    11          0.848              1.268              0.679
 Vibration    12          0.877              1.200              0.604
 Vibration    13          0.896              1.159              0.563
 Vibration    14          0.901              1.150              0.554
 Vibration    15          0.917              1.116              0.522
 Vibration    16          0.926              1.097              0.505
 Vibration    17          0.975              0.999              0.424
 Vibration    18          0.978              0.993              0.419

 Optimization completed.
    -- Stationary point found.
 Normal termination of Gaussian 16 at Fri May 20 19:50:07 2022.
