 Gaussian 16, Revision C.01,
 Gaussian 16:  ES64L-G16RevC.01  3-Jul-2019

 --------------------------------------------------
 #M062X/gen 6D INT(grid=ultrafine) OPT Freq=noraman
 --------------------------------------------------

 -------------
 A.8.a3b2.freq
 -------------
 Symbolic Z-matrix:
 Charge = -1 Multiplicity = 1

 SCF Done:  E(RM062X) =  -1331.44653206     A.U. after   16 cycles
 SCF Done:  E(RM062X) =  -1331.44832689     A.U. after   13 cycles
 SCF Done:  E(RM062X) =  -1331.44881271     A.U. after   15 cycles
 SCF Done:  E(RM062X) =  -1331.44888881     A.U. after   13 cycles
 SCF Done:  E(RM062X) =  -1331.44890205     A.U. after   13 cycles
 SCF Done:  E(RM062X) =  -1331.44890514     A.U. after   12 cycles
 SCF Done:  E(RM062X) =  -1331.44890826     A.U. after   12 cycles
 SCF Done:  E(RM062X) =  -1331.44890893     A.U. after   11 cycles
 SCF Done:  E(RM062X) =  -1331.44890907     A.U. after   11 cycles
 Optimization completed.
    -- Stationary point found.
 Normal termination of Gaussian 16 at Fri May 20 19:52:00 2022.

 ------------------------------------------------------------------
 #N Geom=AllCheck Guess=TCheck SCRF=Check GenChk RM062X/ChkBas Freq
 ------------------------------------------------------------------

 Structure from the checkpoint file:  "/jobfs/40765797.gadi-pbs/Gau-843944.chk"
 -------------
 A.8.a3b2.freq
 -------------
 Charge = -1 Multiplicity = 1

                         Standard orientation:
 ---------------------------------------------------------------------
 Center     Atomic      Atomic             Coordinates (Angstroms)
 Number     Number       Type             X           Y           Z
 ---------------------------------------------------------------------
      1          6           0        0.479904    0.087245    0.009449
      2          6           0       -0.316727    1.226387   -0.001385
      3          9           0        0.190157    2.460008    0.007341
      4          6           0       -1.709271    1.151327   -0.013066
      5          9           0       -2.452237    2.267946   -0.021239
      6          6           0       -2.339480   -0.080994   -0.011165
      7          6           0       -1.572025   -1.237209    0.001507
      8          9           0       -2.177414   -2.433784    0.002333
      9          6           0       -0.189264   -1.133173    0.013309
     10          9           0        0.497066   -2.283388    0.015889
     11         16           0        2.363094    0.061990    0.010764
     12          8           0        2.694651    1.483756   -0.082278
     13          8           0        2.597615   -0.604188    1.307142
     14          7           0        2.793094   -0.723478   -1.255664
     15          1           0        2.753897   -1.714419   -1.011061
     16          9           0       -3.676683   -0.158684   -0.022359
 ---------------------------------------------------------------------

 SCF Done:  E(RM062X) =  -1331.44890907     A.U. after    1 cycles

 The electronic state is 1-A.
 Alpha  occ. eigenvalues --  -89.99679 -25.21611 -25.20867 -25.20675 -25.18828
 Alpha  occ. eigenvalues --  -25.17928 -19.47298 -19.47175 -14.57811 -10.57277
 Alpha  occ. eigenvalues --  -10.56510 -10.56406 -10.56019 -10.56012 -10.47491
 Alpha  occ. eigenvalues --   -8.30393  -6.22615  -6.22587  -6.22466  -1.31633
 Alpha  occ. eigenvalues --   -1.30351  -1.29725  -1.28159  -1.27492  -1.06851
 Alpha  occ. eigenvalues --   -0.95209  -0.90486  -0.82330  -0.78093  -0.77657
 Alpha  occ. eigenvalues --   -0.66382  -0.65388  -0.58949  -0.57677  -0.57254
 Alpha  occ. eigenvalues --   -0.53504  -0.52812  -0.52310  -0.52274  -0.49391
 Alpha  occ. eigenvalues --   -0.49316  -0.48257  -0.46423  -0.45757  -0.45276
 Alpha  occ. eigenvalues --   -0.44681  -0.42998  -0.40787  -0.39585  -0.38806
 Alpha  occ. eigenvalues --   -0.37168  -0.35608  -0.32899  -0.27576  -0.24634
 Alpha  occ. eigenvalues --   -0.23150  -0.22094  -0.20729  -0.20376  -0.18063
 Alpha  occ. eigenvalues --   -0.15647
 Alpha virt. eigenvalues --    0.08705   0.11407   0.11965   0.12551   0.13075
 Alpha virt. eigenvalues --    0.14874   0.15309   0.15884   0.16250   0.17797
 Alpha virt. eigenvalues --    0.18047   0.18433   0.18665   0.19122   0.21063

 Mulliken charges:
               1
     1  C   -1.042041
     2  C   -0.133873
     3  F   -0.303881
     4  C    0.444139
     5  F   -0.333416
     6  C    0.491652
     7  C    0.404000
     8  F   -0.334171
     9  C    0.785215
    10  F   -0.339455
    11  S    1.326206
    12  O   -0.633669
    13  O   -0.572320
    14  N   -0.775086
    15  H    0.354212
    16  F   -0.337512
 Sum of Mulliken charges =  -1.00000

 Dipole moment (field-independent basis, Debye):
    X=             -8.8461    Y=             -1.4164    Z=              0.2036  Tot=              8.9611
 Quadrupole moment (field-independent basis, Debye-Ang):
   XX=           -134.5871   YY=           -104.7943   ZZ=            -98.5688
   XY=             -4.1755   XZ=              1.1869   YZ=              1.5329

  Exact polarizability:     141.010      -3.073     111.809      -3.573       1.680      73.897
 Approx polarizability:     157.969      -3.069     155.502      -3.164       0.994      98.509

                      1                      2                      3
                      A                      A                      A
 Frequencies --     29.8221                64.8784               131.9210
 Red. masses --     10.7738                14.9017                17.9549
 Frc consts  --      0.0056                 0.0370                 0.1841
 IR Inten    --      0.3590                 2.1216                 0.1476

                      4                      5                      6
                      A                      A                      A
 Frequencies --    141.5199               162.9998               198.6320
 Red. masses --     12.7718                16.6073                15.6799
 Frc consts  --      0.1507                 0.2600                 0.3645
 IR Inten    --      1.4367                 0.5035                 1.1473

                      7                      8                      9
                      A                      A                      A
 Frequencies --    216.6289               253.8578               261.4618
 Red. masses --     15.8189                10.8389                 9.6015
 Frc consts  --      0.4374                 0.4115                 0.3867
 IR Inten    --      0.8610                 2.0663                 1.4075

                     10                     11                     12
                      A                      A                      A
 Frequencies --    271.7843               279.3841               319.6949
 Red. masses --     15.4914                18.4648                14.2603
 Frc consts  --      0.6742                 0.8492                 0.8587
 IR Inten    --      0.5162                 0.8097                 2.2126

                     13                     14                     15
                      A                      A                      A
 Frequencies --    352.1842               394.0452               405.5631
 Red. masses --     17.1986                12.3245                12.1470
 Frc consts  --      1.2568                 1.1275                 1.1772
 IR Inten    --      0.0444                 0.2448                 0.4100

                     16                     17                     18
                      A                      A                      A
 Frequencies --    444.3270               455.6323               492.9626
 Red. masses --      6.1020                 4.6184                15.7768
 Frc consts  --      0.7098                 0.5649                 2.2589
 IR Inten    --     13.4754                18.4152                 0.9956

                     19                     20                     21
                      A                      A                      A
 Frequencies --    512.0668               540.0718               584.7440
 Red. masses --     14.4156                 1.4106                19.0893
 Frc consts  --      2.2271                 0.2424                 3.8457
 IR Inten    --     15.6050                56.5575               197.6346

                     22                     23                     24
                      A                      A                      A
 Frequencies --    592.5337               646.9375               676.0913
 Red. masses --     18.2024                12.2356                12.1544
 Frc consts  --      3.7653                 3.0172                 3.2734
 IR Inten    --    102.0332                 5.4488                 0.1510

                     25                     26                     27
                      A                      A                      A
 Frequencies --    714.4965               765.4540               814.2660
 Red. masses --     12.1429                12.2266                13.7584
 Frc consts  --      3.6524                 4.2208                 5.3746
 IR Inten    --      8.3918                 0.6933                 0.1692

                     28                     29                     30
                      A                      A                      A
 Frequencies --    977.6026              1018.9206              1123.1894
 Red. masses --     14.4626                13.8739                11.7392
 Frc consts  --      8.1437                 8.4865                 8.7256
 IR Inten    --    194.3340               187.6461               234.5076

                     31                     32                     33
                      A                      A                      A
 Frequencies --   1135.7640              1177.6348              1190.4277
 Red. masses --      1.5175                 6.3659                13.5738
 Frc consts  --      1.1533                 5.2015                11.3333
 IR Inten    --    168.8435               204.0228                35.5784

                     34                     35                     36
                      A                      A                      A
 Frequencies --   1304.6096              1316.6387              1323.0961
 Red. masses --      8.2297                11.2423                12.7817
 Frc consts  --      8.2527                11.4826                13.1832
 IR Inten    --    171.8563                19.6468                30.8636

                     37                     38                     39
                      A                      A                      A
 Frequencies --   1445.6309              1551.9755              1583.6394
 Red. masses --     12.5472                12.2651                12.4749
 Frc consts  --     15.4494                17.4057                18.4332
 IR Inten    --      4.7559               499.6025               174.1864

                     40                     41                     42
                      A                      A                      A
 Frequencies --   1704.1428              1716.1823              3524.2006
 Red. masses --     12.0342                12.0496                 1.0730
 Frc consts  --     20.5911                20.9098                 7.8518
 IR Inten    --     16.7583                14.9756                 9.3322

 - Thermochemistry -
 -------------------
 Temperature   298.150 Kelvin.  Pressure   1.00000 Atm.
 Atom     1 has atomic number  6 and mass  12.00000

 Molecular mass:   245.96482 amu.
 Principal axes and moments of inertia in atomic units:
                           1         2         3
     Eigenvalues --  2123.544784181.599915944.02125
           X            0.99997  -0.00758  -0.00274
           Y            0.00759   0.99996   0.00364
           Z            0.00271  -0.00367   0.99999
 This molecule is an asymmetric top.
 Rotational symmetry number  1.
 Warning -- assumption of classical behavior for rotation
           may cause significant error
 Rotational temperatures (Kelvin)      0.04079     0.02071     0.01457
 Rotational constants (GHZ):           0.84987     0.43159     0.30362
 Zero-point vibrational energy     196292.9 (Joules/Mol)
                                   46.91514 (Kcal/Mol)
 Warning -- explicit consideration of  22 degrees of freedom as
           vibrations may cause significant error
 Vibrational temperatures:     42.91    93.35   189.80   203.62   234.52
          (Kelvin)            285.79   311.68   365.24   376.19   391.04
                              401.97   459.97   506.71   566.94   583.51
                              639.29   655.55   709.26   736.75   777.04
                              841.32   852.52   930.80   972.74  1028.00
                             1101.32  1171.55  1406.55  1466.00  1616.02
                             1634.11  1694.35  1712.76  1877.04  1894.35
                             1903.64  2079.94  2232.95  2278.50  2451.88
                             2469.20  5070.54

 Zero-point correction=                           0.074764 (Hartree/Particle)
 Thermal correction to Energy=                    0.087794
 Thermal correction to Enthalpy=                  0.088738
 Thermal correction to Gibbs Free Energy=         0.034362
 Sum of electronic and zero-point Energies=          -1331.374145
 Sum of electronic and thermal Energies=             -1331.361115
 Sum of electronic and thermal Enthalpies=           -1331.360171
 Sum of electronic and thermal Free Energies=        -1331.414547

                     E (Thermal)             CV                S
                      KCal/Mol        Cal/Mol-Kelvin    Cal/Mol-Kelvin
 Total                   55.092             47.216            114.443
 Electronic               0.000              0.000              0.000
 Translational            0.889              2.981             42.401
 Rotational               0.889              2.981             32.334
 Vibrational             53.314             41.254             39.708
 Vibration     1          0.594              1.984              5.841
 Vibration     2          0.597              1.971              4.303
 Vibration     3          0.612              1.921              2.918
 Vibration     4          0.615              1.912              2.783
 Vibration     5          0.623              1.888              2.515
 Vibration     6          0.637              1.842              2.146
 Vibration     7          0.645              1.816              1.987
 Vibration     8          0.665              1.756              1.704
 Vibration     9          0.669              1.743              1.652
 Vibration    10          0.675              1.725              1.585
 Vibration    11          0.680              1.712              1.537
 Vibration    12          0.706              1.636              1.312
 Vibration    13          0.729              1.571              1.156
 Vibration    14          0.761              1.483              0.985
 Vibration    15          0.771              1.458              0.942
 Vibration    16          0.804              1.373              0.813
 Vibration    17          0.814              1.348              0.779
 Vibration    18          0.849              1.266              0.676
 Vibration    19          0.867              1.223              0.629
 Vibration    20          0.895              1.161              0.565
 Vibration    21          0.942              1.064              0.477
 Vibration    22          0.950              1.048              0.463

 Optimization completed.
    -- Stationary point found.
 Normal termination of Gaussian 16 at Fri May 20 19:56:27 2022.
