 Gaussian 16, Revision C.01,
 Gaussian 16:  ES64L-G16RevC.01  3-Jul-2019

 --------------------------------------------------
 #M062X/gen 6D INT(grid=ultrafine) OPT Freq=noraman
 --------------------------------------------------

 ---------
 A.9.freq
 ---------
 Symbolic Z-matrix:
 Charge = -1 Multiplicity = 1

 SCF Done:  E(RM062X) =  -949.891725386     A.U. after   17 cycles
 SCF Done:  E(RM062X) =  -949.894216550     A.U. after   14 cycles
 SCF Done:  E(RM062X) =  -949.895111571     A.U. after   15 cycles
 SCF Done:  E(RM062X) =  -949.895447405     A.U. after   16 cycles
 SCF Done:  E(RM062X) =  -949.895593768     A.U. after   16 cycles
 SCF Done:  E(RM062X) =  -949.895629222     A.U. after   16 cycles
 SCF Done:  E(RM062X) =  -949.895645643     A.U. after   14 cycles
 SCF Done:  E(RM062X) =  -949.895647834     A.U. after   13 cycles
 SCF Done:  E(RM062X) =  -949.895653709     A.U. after   16 cycles
 SCF Done:  E(RM062X) =  -949.895657385     A.U. after   14 cycles
 SCF Done:  E(RM062X) =  -949.895662521     A.U. after   13 cycles
 SCF Done:  E(RM062X) =  -949.895664048     A.U. after   13 cycles
 SCF Done:  E(RM062X) =  -949.895664615     A.U. after   13 cycles
 Optimization completed.
    -- Stationary point found.
 Normal termination of Gaussian 16 at Wed Jun 29 11:40:00 2022.

 ------------------------------------------------------------------
 #N Geom=AllCheck Guess=TCheck SCRF=Check GenChk RM062X/ChkBas Freq
 ------------------------------------------------------------------

 Structure from the checkpoint file:  "/jobfs/48698451.gadi-pbs/Gau-1614726.chk"
 ---------
 A.9.freq
 ---------
 Charge = -1 Multiplicity = 1

                         Standard orientation:
 ---------------------------------------------------------------------
 Center     Atomic      Atomic             Coordinates (Angstroms)
 Number     Number       Type             X           Y           Z
 ---------------------------------------------------------------------
      1          6           0       -0.543952   -0.077845   -0.023642
      2          6           0        0.068351   -1.331822   -0.030284
      3          1           0       -0.561863   -2.216449   -0.050304
      4          6           0        1.454748   -1.437135   -0.028600
      5          1           0        1.952392   -2.403083   -0.039756
      6          6           0        2.241896   -0.282545   -0.013080
      7          8           0        3.602592   -0.484549   -0.012486
      8          6           0        1.638640    0.976422   -0.008060
      9          1           0        2.231340    1.885197   -0.003215
     10          6           0        0.243379    1.065667   -0.013625
     11          1           0       -0.251290    2.033929   -0.027418
     12         16           0       -2.360209    0.080278    0.034449
     13          8           0       -2.805714   -1.224810   -0.521995
     14          8           0       -2.620417    0.299999    1.470503
     15          7           0       -2.758391    1.342472   -0.802759
     16          1           0       -2.804956    1.035527   -1.776823
     17          6           0        4.420595    0.656953    0.017523
     18          1           0        5.450315    0.294859    0.025868
     19          1           0        4.238453    1.257847    0.918485
     20          1           0        4.264060    1.287120   -0.868286
 ---------------------------------------------------------------------

 SCF Done:  E(RM062X) =  -949.895664615     A.U. after    1 cycles

 The electronic state is 1-A.
 Alpha  occ. eigenvalues --  -89.96339 -19.58374 -19.44669 -19.44292 -14.55083
 Alpha  occ. eigenvalues --  -10.52067 -10.50842 -10.44733 -10.44196 -10.43872
 Alpha  occ. eigenvalues --  -10.43831 -10.43016  -8.27181  -6.19405  -6.19341
 Alpha  occ. eigenvalues --   -6.19276  -1.09966  -1.03588  -0.91974  -0.84763
 Alpha  occ. eigenvalues --   -0.79239  -0.75312  -0.73306  -0.69160  -0.58670
 Alpha  occ. eigenvalues --   -0.57811  -0.51754  -0.50784  -0.46336  -0.45873
 Alpha  occ. eigenvalues --   -0.43433  -0.40950  -0.39170  -0.37965  -0.37105
 Alpha  occ. eigenvalues --   -0.35266  -0.34822  -0.34180  -0.32591  -0.28881
 Alpha  occ. eigenvalues --   -0.28402  -0.24800  -0.21568  -0.20743  -0.19536
 Alpha  occ. eigenvalues --   -0.18014  -0.16280  -0.15449  -0.12700
 Alpha virt. eigenvalues --    0.08867   0.11017   0.12049   0.12916   0.13184
 Alpha virt. eigenvalues --    0.14058   0.14296   0.15470   0.16038   0.16982
 Alpha virt. eigenvalues --    0.18100   0.18967   0.19981   0.20113   0.20636

 Mulliken charges:
               1
     1  C   -1.541009
     2  C   -0.288028
     3  H    0.240793
     4  C   -0.104453
     5  H    0.193297
     6  C    0.031729
     7  O   -0.404529
     8  C    0.843754
     9  H    0.177212
    10  C   -0.255742
    11  H    0.245051
    12  S    1.381660
    13  O   -0.668180
    14  O   -0.600331
    15  N   -0.847757
    16  H    0.334691
    17  C   -0.336189
    18  H    0.195939
    19  H    0.201830
    20  H    0.200263
 Sum of Mulliken charges =  -1.00000

 Dipole moment (field-independent basis, Debye):
    X=             12.4086    Y=              0.1739    Z=             -1.5118  Tot=             12.5015
 Quadrupole moment (field-independent basis, Debye-Ang):
   XX=           -119.6486   YY=            -87.5853   ZZ=            -88.1040
   XY=              8.8073   XZ=              4.3279   YZ=             -1.1265

  Exact polarizability:     167.437      -1.767     122.477       2.274      -1.665      86.579
 Approx polarizability:     173.327      -2.536     167.029       1.106      -0.593     112.345

                      1                      2                      3
                      A                      A                      A
 Frequencies --     22.9746                59.9254               105.0154
 Red. masses --      5.1774                 3.7629                 5.1554
 Frc consts  --      0.0016                 0.0080                 0.0335
 IR Inten    --      0.9291                 0.3659                 5.7631

                      4                      5                      6
                      A                      A                      A
 Frequencies --    143.8348               208.2278               249.0383
 Red. masses --      6.1141                 3.4487                 5.8304
 Frc consts  --      0.0745                 0.0881                 0.2131
 IR Inten    --      1.6764                 5.3799                 2.5260

                      7                      8                      9
                      A                      A                      A
 Frequencies --    275.6237               283.9019               350.7667
 Red. masses --      4.3386                 1.3366                 2.3065
 Frc consts  --      0.1942                 0.0635                 0.1672
 IR Inten    --      0.4753                 3.9382                34.8619

                     10                     11                     12
                      A                      A                      A
 Frequencies --    362.5332               426.5076               440.5895
 Red. masses --      5.8778                 2.9648                 2.5330
 Frc consts  --      0.4552                 0.3178                 0.2897
 IR Inten    --      1.7257                 0.9402                21.8451

                     13                     14                     15
                      A                      A                      A
 Frequencies --    481.8942               491.6603               520.7741
 Red. masses --      4.2662                 2.5139                 9.1861
 Frc consts  --      0.5837                 0.3580                 1.4679
 IR Inten    --      1.9540                53.5083                16.7695

                     16                     17                     18
                      A                      A                      A
 Frequencies --    553.8880               573.2498               641.0905
 Red. masses --      2.8499                 7.4035                 7.2299
 Frc consts  --      0.5151                 1.4334                 1.7507
 IR Inten    --     47.7872               125.2977                10.1121

                     19                     20                     21
                      A                      A                      A
 Frequencies --    661.7467               733.7058               820.8154
 Red. masses --      8.4142                 3.9345                 5.5973
 Frc consts  --      2.1709                 1.2479                 2.2219
 IR Inten    --     65.2143                 4.5041                36.6377

                     22                     23                     24
                      A                      A                      A
 Frequencies --    831.3999               852.8767               957.6283
 Red. masses --      1.3181                 1.5343                11.5932
 Frc consts  --      0.5368                 0.6576                 6.2639
 IR Inten    --     11.4535                36.3783               266.6618

                     25                     26                     27
                      A                      A                      A
 Frequencies --    972.5071               998.1448              1033.7066
 Red. masses --      1.3614                 1.3318                 3.0699
 Frc consts  --      0.7586                 0.7818                 1.9327
 IR Inten    --      4.8576                 0.5772                 3.5760

                     28                     29                     30
                      A                      A                      A
 Frequencies --   1116.7007              1122.7968              1127.2211
 Red. masses --      2.3184                 4.4128                 1.5153
 Frc consts  --      1.7034                 3.2777                 1.1344
 IR Inten    --    209.6946                60.8661                32.7184

                     31                     32                     33
                      A                      A                      A
 Frequencies --   1138.0641              1148.6027              1188.3934
 Red. masses --      2.3131                 2.8740                 1.2791
 Frc consts  --      1.7651                 2.2340                 1.0643
 IR Inten    --     38.4273               150.7863                 1.4340

                     34                     35                     36
                      A                      A                      A
 Frequencies --   1197.7964              1220.5364              1259.5513
 Red. masses --      1.1857                 1.4369                 5.5098
 Frc consts  --      1.0023                 1.2612                 5.1501
 IR Inten    --      7.8682                10.4327               250.5330

                     37                     38                     39
                      A                      A                      A
 Frequencies --   1302.0091              1320.8209              1351.4366
 Red. masses --      5.1886                 1.2798                 7.5241
 Frc consts  --      5.1824                 1.3154                 8.0965
 IR Inten    --    216.6715                 1.3361                61.0618

                     40                     41                     42
                      A                      A                      A
 Frequencies --   1451.3655              1493.8519              1518.0471
 Red. masses --      3.2208                 1.2017                 1.0457
 Frc consts  --      3.9973                 1.5800                 1.4198
 IR Inten    --      2.0407                12.1897                 5.5444

                     43                     44                     45
                      A                      A                      A
 Frequencies --   1536.8518              1550.5491              1664.1689
 Red. masses --      1.0643                 2.4825                 7.3359
 Frc consts  --      1.4810                 3.5165                11.9701
 IR Inten    --     39.2505                88.4681                27.5946

                     46                     47                     48
                      A                      A                      A
 Frequencies --   1681.4468              3045.5189              3102.5433
 Red. masses --      6.5092                 1.0345                 1.1053
 Frc consts  --     10.8429                 5.6533                 6.2685
 IR Inten    --     55.3796                68.7293                49.1047

                     49                     50                     51
                      A                      A                      A
 Frequencies --   3170.6455              3218.5972              3221.7201
 Red. masses --      1.0990                 1.0885                 1.0890
 Frc consts  --      6.5097                 6.6440                 6.6596
 IR Inten    --     44.0167                11.7759                 1.6219

                     52                     53                     54
                      A                      A                      A
 Frequencies --   3239.3986              3241.1776              3501.2422
 Red. masses --      1.0931                 1.0926                 1.0730
 Frc consts  --      6.7582                 6.7627                 7.7496
 IR Inten    --     10.4504                20.3616                 4.7190

 - Thermochemistry -
 -------------------
 Temperature   298.150 Kelvin.  Pressure   1.00000 Atm.
 Atom     1 has atomic number  6 and mass  12.00000

 Molecular mass:   186.02249 amu.
 Principal axes and moments of inertia in atomic units:
                           1         2         3
     Eigenvalues --   741.306574356.926674721.28963
           X            0.99994   0.00990   0.00440
           Y           -0.00983   0.99983  -0.01581
           Z           -0.00456   0.01576   0.99987
 This molecule is an asymmetric top.
 Rotational symmetry number  1.
 Warning -- assumption of classical behavior for rotation
           may cause significant error
 Rotational temperatures (Kelvin)      0.11684     0.01988     0.01835
 Rotational constants (GHZ):           2.43454     0.41422     0.38226
 Zero-point vibrational energy     389893.4 (Joules/Mol)
                                   93.18675 (Kcal/Mol)
 Warning -- explicit consideration of  17 degrees of freedom as
           vibrations may cause significant error
 Vibrational temperatures:     33.06    86.22   151.09   206.95   299.59
          (Kelvin)            358.31   396.56   408.47   504.68   521.60
                              613.65   633.91   693.34   707.39   749.28
                              796.92   824.78   922.39   952.11  1055.64
                             1180.97  1196.20  1227.10  1377.81  1399.22
                             1436.11  1487.27  1606.68  1615.45  1621.82
                             1637.42  1652.58  1709.83  1723.36  1756.08
                             1812.21  1873.30  1900.37  1944.42  2088.19
                             2149.32  2184.13  2211.19  2230.89  2394.37
                             2419.23  4381.82  4463.87  4561.85  4630.84
                             4635.34  4660.77  4663.33  5037.51

 Zero-point correction=                           0.148503 (Hartree/Particle)
 Thermal correction to Energy=                    0.159614
 Thermal correction to Enthalpy=                  0.160559
 Thermal correction to Gibbs Free Energy=         0.110206
 Sum of electronic and zero-point Energies=           -949.747162
 Sum of electronic and thermal Energies=              -949.736050
 Sum of electronic and thermal Enthalpies=            -949.735106
 Sum of electronic and thermal Free Energies=         -949.785459

                     E (Thermal)             CV                S
                      KCal/Mol        Cal/Mol-Kelvin    Cal/Mol-Kelvin
 Total                  100.160             41.556            105.976
 Electronic               0.000              0.000              0.000
 Translational            0.889              2.981             41.568
 Rotational               0.889              2.981             31.101
 Vibrational             98.382             35.594             33.307
 Vibration     1          0.593              1.985              6.359
 Vibration     2          0.597              1.973              4.460
 Vibration     3          0.605              1.945              3.359
 Vibration     4          0.616              1.909              2.752
 Vibration     5          0.642              1.828              2.059
 Vibration     6          0.662              1.764              1.737
 Vibration     7          0.677              1.718              1.561
 Vibration     8          0.682              1.704              1.510
 Vibration     9          0.728              1.574              1.163
 Vibration    10          0.736              1.549              1.111
 Vibration    11          0.788              1.413              0.870
 Vibration    12          0.800              1.382              0.825
 Vibration    13          0.838              1.290              0.705
 Vibration    14          0.847              1.269              0.679
 Vibration    15          0.876              1.204              0.608
 Vibration    16          0.909              1.131              0.536
 Vibration    17          0.930              1.089              0.498

                           ! Non-Optimized Parameters !
 Normal termination of Gaussian 16 at Wed Jun 29 11:43:17 2022.
