 Gaussian 16, Revision C.01,
 Gaussian 16:  ES64L-G16RevC.01  3-Jul-2019

 --------------------------------------------------
 #M062X/gen 6D INT(grid=ultrafine) OPT Freq=noraman
 --------------------------------------------------

 ---------------
 HA.14.a2d2.freq
 ---------------
 Symbolic Z-matrix:
 Charge =  0 Multiplicity = 1

 SCF Done:  E(RM062X) =  -1063.76281094     A.U. after   16 cycles
 SCF Done:  E(RM062X) =  -1063.76429060     A.U. after   15 cycles
 SCF Done:  E(RM062X) =  -1063.76130996     A.U. after   15 cycles
 SCF Done:  E(RM062X) =  -1063.76351932     A.U. after   15 cycles
 SCF Done:  E(RM062X) =  -1063.76466018     A.U. after   11 cycles
 SCF Done:  E(RM062X) =  -1063.76469864     A.U. after   14 cycles
 SCF Done:  E(RM062X) =  -1063.76497501     A.U. after   14 cycles
 SCF Done:  E(RM062X) =  -1063.76502653     A.U. after   12 cycles
 SCF Done:  E(RM062X) =  -1063.76504179     A.U. after   12 cycles
 SCF Done:  E(RM062X) =  -1063.76504683     A.U. after   12 cycles
 SCF Done:  E(RM062X) =  -1063.76504767     A.U. after   10 cycles
 SCF Done:  E(RM062X) =  -1063.76504824     A.U. after   10 cycles
 SCF Done:  E(RM062X) =  -1063.76504837     A.U. after    9 cycles
 Optimization completed.
    -- Stationary point found.
 Normal termination of Gaussian 16 at Sun May 22 15:52:45 2022.

 ------------------------------------------------------------------
 #N Geom=AllCheck Guess=TCheck SCRF=Check GenChk RM062X/ChkBas Freq
 ------------------------------------------------------------------

 Structure from the checkpoint file:  "/jobfs/40919096.gadi-pbs/Gau-503690.chk"
 ---------------
 HA.14.a2d2.freq
 ---------------
 Charge =  0 Multiplicity = 1

                         Standard orientation:
 ---------------------------------------------------------------------
 Center     Atomic      Atomic             Coordinates (Angstroms)
 Number     Number       Type             X           Y           Z
 ---------------------------------------------------------------------
      1          6           0       -0.888757    0.318121   -0.000664
      2          6           0       -0.535716   -1.038026   -0.015613
      3          6           0        0.867689   -1.546659   -0.155070
      4          6           0       -1.543410   -1.998451    0.066572
      5          1           0       -1.265770   -3.047045    0.018504
      6          6           0       -2.876295   -1.616832    0.201895
      7          6           0       -3.214544   -0.266814    0.229283
      8          1           0       -4.253094    0.035863    0.319430
      9          6           0       -2.220962    0.704431    0.112950
     10          1           0       -2.467757    1.760816    0.079853
     11         16           0        0.321728    1.630029   -0.241258
     12          8           0        1.302435    1.138518   -1.191199
     13          8           0       -0.429285    2.853007   -0.469216
     14          7           0        1.101219    1.857741    1.207553
     15          1           0        1.501596    0.988883    1.555470
     16          1           0        0.496081    2.316471    1.884053
     17          8           0        1.178636   -2.454442   -0.881815
     18          8           0        1.727986   -0.922362    0.668405
     19          6           0        3.112682   -1.205356    0.420909
     20          1           0       -3.649262   -2.375531    0.273739
     21          1           0        3.668075   -0.628589    1.159239
     22          1           0        3.366977   -0.882750   -0.590815
     23          1           0        3.304664   -2.273021    0.536805
 ---------------------------------------------------------------------

 SCF Done:  E(RM062X) =  -1063.76504837     A.U. after    1 cycles

 The electronic state is 1-A.
 Alpha  occ. eigenvalues --  -90.17494 -19.71584 -19.65956 -19.65026 -19.64990
 Alpha  occ. eigenvalues --  -14.80447 -10.71041 -10.61538 -10.61478 -10.60853
 Alpha  occ. eigenvalues --  -10.59290 -10.59224 -10.59104 -10.59027  -8.48423
 Alpha  occ. eigenvalues --   -6.40630  -6.40591  -6.40517  -1.26190  -1.25265
 Alpha  occ. eigenvalues --   -1.16605  -1.13980  -1.03218  -1.00548  -0.90482
 Alpha  occ. eigenvalues --   -0.89166  -0.84109  -0.77613  -0.73980  -0.70843
 Alpha  occ. eigenvalues --   -0.67847  -0.65950  -0.62563  -0.61430  -0.59597
 Alpha  occ. eigenvalues --   -0.58386  -0.57763  -0.56839  -0.55401  -0.53736
 Alpha  occ. eigenvalues --   -0.52757  -0.51328  -0.49173  -0.47141  -0.46619
 Alpha  occ. eigenvalues --   -0.45829  -0.44589  -0.42439  -0.40882  -0.40520
 Alpha  occ. eigenvalues --   -0.39922  -0.38696  -0.38111  -0.37362  -0.34073
 Alpha  occ. eigenvalues --   -0.33999
 Alpha virt. eigenvalues --   -0.03972  -0.01764   0.00198   0.01417   0.02074
 Alpha virt. eigenvalues --    0.03057   0.04026   0.04310   0.04757   0.05445
 Alpha virt. eigenvalues --    0.05635   0.06247   0.06610   0.06952   0.08659

 Mulliken charges:
               1
     1  C   -1.105193
     2  C    0.490547
     3  C    0.357938
     4  C   -0.268818
     5  H    0.248703
     6  C   -0.214994
     7  C   -0.016128
     8  H    0.224781
     9  C   -0.106061
    10  H    0.269389
    11  S    1.548660
    12  O   -0.500188
    13  O   -0.574095
    14  N   -0.993108
    15  H    0.486107
    16  H    0.445778
    17  O   -0.402465
    18  O   -0.419751
    19  C   -0.407056
    20  H    0.226251
    21  H    0.216925
    22  H    0.258055
    23  H    0.234724
 Sum of Mulliken charges =  -0.00000

 Dipole moment (field-independent basis, Debye):
    X=             -2.0567    Y=             -2.3568    Z=              4.9137  Tot=              5.8248
 Quadrupole moment (field-independent basis, Debye-Ang):
   XX=            -72.4911   YY=            -98.1486   ZZ=            -90.5993
   XY=              0.4077   XZ=              4.3327   YZ=              2.7852

  Exact polarizability:     155.981       3.261     138.051      -1.546       5.303      86.744
 Approx polarizability:     181.347      -3.626     176.761      -5.883       9.662     117.044

                      1                      2                      3
                      A                      A                      A
 Frequencies --     57.5905                74.9051                99.5250
 Red. masses --      6.3105                 3.4900                 4.5240
 Frc consts  --      0.0123                 0.0115                 0.0264
 IR Inten    --      3.0507                 5.5836                 2.4226

                      4                      5                      6
                      A                      A                      A
 Frequencies --    116.6211               143.0001               150.8452
 Red. masses --      5.1794                 4.4739                 1.2032
 Frc consts  --      0.0415                 0.0539                 0.0161
 IR Inten    --      2.3715                 2.0530                 0.2345

                      7                      8                      9
                      A                      A                      A
 Frequencies --    208.1352               242.6864               257.4980
 Red. masses --      6.3282                 5.1163                 6.0560
 Frc consts  --      0.1615                 0.1775                 0.2366
 IR Inten    --      1.5893                 5.5184                 1.5504

                     10                     11                     12
                      A                      A                      A
 Frequencies --    295.5093               309.9191               326.0162
 Red. masses --      4.6898                 3.4784                 2.3858
 Frc consts  --      0.2413                 0.1968                 0.1494
 IR Inten    --     18.3462                 1.2032                 7.2086

                     13                     14                     15
                      A                      A                      A
 Frequencies --    369.2208               390.8510               429.6562
 Red. masses --      5.0504                 3.7920                 2.9539
 Frc consts  --      0.4056                 0.3413                 0.3213
 IR Inten    --     10.5783                 2.7845                 9.5819

                     16                     17                     18
                      A                      A                      A
 Frequencies --    449.0346               484.6866               538.8344
 Red. masses --      3.3835                 4.7328                 5.4844
 Frc consts  --      0.4019                 0.6551                 0.9382
 IR Inten    --     12.1179                 9.7075                36.7741

                     19                     20                     21
                      A                      A                      A
 Frequencies --    564.6005               576.3270               664.2566
 Red. masses --      4.5037                 7.3795                 5.8089
 Frc consts  --      0.8459                 1.4442                 1.5101
 IR Inten    --      4.4429                32.3632                 8.6902

                     22                     23                     24
                      A                      A                      A
 Frequencies --    709.7169               725.7824               769.5339
 Red. masses --      4.2796                 3.5192                 3.3989
 Frc consts  --      1.2701                 1.0922                 1.1859
 IR Inten    --     50.6725               113.3308               277.8067

                     25                     26                     27
                      A                      A                      A
 Frequencies --    779.0285               812.5997               856.4219
 Red. masses --      1.8491                 2.4680                 4.9428
 Frc consts  --      0.6612                 0.9602                 2.1360
 IR Inten    --     57.6575                24.4413                12.2201

                     28                     29                     30
                      A                      A                      A
 Frequencies --    877.0758               924.6121              1002.7438
 Red. masses --      2.5874                 1.3757                 1.3924
 Frc consts  --      1.1727                 0.6929                 0.8249
 IR Inten    --     14.0455                 0.6138                 2.8115

                     31                     32                     33
                      A                      A                      A
 Frequencies --   1023.6436              1034.6557              1072.5233
 Red. masses --      5.8489                 1.3387                 4.8345
 Frc consts  --      3.6110                 0.8444                 3.2765
 IR Inten    --     14.6905                 0.2945                 9.4281

                     34                     35                     36
                      A                      A                      A
 Frequencies --   1087.8801              1134.2270              1159.2928
 Red. masses --      2.4567                 1.3252                 2.2830
 Frc consts  --      1.7130                 1.0045                 1.8078
 IR Inten    --     29.1035                15.6963                49.5723

                     37                     38                     39
                      A                      A                      A
 Frequencies --   1175.1750              1185.7808              1190.8031
 Red. masses --      2.5153                 3.7894                 1.3572
 Frc consts  --      2.0467                 3.1392                 1.1339
 IR Inten    --     93.3967               141.1478                 2.3703

                     40                     41                     42
                      A                      A                      A
 Frequencies --   1192.8635              1239.4318              1296.0222
 Red. masses --      1.1280                 1.6304                 1.5493
 Frc consts  --      0.9457                 1.4756                 1.5333
 IR Inten    --      0.1630                16.8681                64.9065

                     43                     44                     45
                      A                      A                      A
 Frequencies --   1341.3854              1345.8415              1388.7135
 Red. masses --      4.6139                 5.0688                10.7879
 Frc consts  --      4.8913                 5.4093                12.2578
 IR Inten    --    205.5650               135.1670               281.3321

                     46                     47                     48
                      A                      A                      A
 Frequencies --   1488.8641              1496.0631              1510.5305
 Red. masses --      1.7246                 1.4794                 1.0442
 Frc consts  --      2.2524                 1.9509                 1.4037
 IR Inten    --     13.2935                19.1735                 9.1120

                     49                     50                     51
                      A                      A                      A
 Frequencies --   1520.1886              1531.9093              1615.1061
 Red. masses --      1.0507                 2.7127                 1.1129
 Frc consts  --      1.4306                 3.7507                 1.7104
 IR Inten    --     13.3278                 7.0642                58.0852

                     52                     53                     54
                      A                      A                      A
 Frequencies --   1658.5261              1680.1720              1872.6825
 Red. masses --      6.5356                 6.3515                12.1544
 Frc consts  --     10.5920                10.5641                25.1138
 IR Inten    --      3.1029                 4.9117               292.3472

                     55                     56                     57
                      A                      A                      A
 Frequencies --   3111.8431              3201.0761              3218.4454
 Red. masses --      1.0288                 1.1084                 1.1081
 Frc consts  --      5.8695                 6.6917                 6.7627
 IR Inten    --     26.1118                 7.4523                 9.2612

                     58                     59                     60
                      A                      A                      A
 Frequencies --   3228.6235              3239.1589              3247.9159
 Red. masses --      1.0873                 1.0913                 1.0953
 Frc consts  --      6.6777                 6.7463                 6.8073
 IR Inten    --      1.9365                 3.1578                 2.5358

                     61                     62                     63
                      A                      A                      A
 Frequencies --   3253.6481              3535.7100              3651.4474
 Red. masses --      1.0960                 1.0466                 1.0993
 Frc consts  --      6.8359                 7.7084                 8.6357
 IR Inten    --      7.4488                38.8835                87.3455

 - Thermochemistry -
 -------------------
 Temperature   298.150 Kelvin.  Pressure   1.00000 Atm.
 Atom     1 has atomic number  6 and mass  12.00000

 Molecular mass:   215.02523 amu.
 Principal axes and moments of inertia in atomic units:
                           1         2         3
     Eigenvalues --  2325.599722597.848394353.28938
           X            0.99956  -0.02852   0.00824
           Y            0.02845   0.99957   0.00763
           Z           -0.00846  -0.00739   0.99994
 This molecule is an asymmetric top.
 Rotational symmetry number  1.
 Warning -- assumption of classical behavior for rotation
           may cause significant error
 Rotational temperatures (Kelvin)      0.03724     0.03334     0.01990
 Rotational constants (GHZ):           0.77603     0.69471     0.41457
 Zero-point vibrational energy     455402.7 (Joules/Mol)
                                  108.84385 (Kcal/Mol)
 Warning -- explicit consideration of  20 degrees of freedom as
           vibrations may cause significant error
 Vibrational temperatures:     82.86   107.77   143.19   167.79   205.75
          (Kelvin)            217.03   299.46   349.17   370.48   425.17
                              445.90   469.06   531.23   562.35   618.18
                              646.06   697.36   775.26   812.33   829.21
                              955.72  1021.12  1044.24  1107.19  1120.85
                             1169.15  1232.20  1261.92  1330.31  1442.72
                             1472.79  1488.64  1543.12  1565.22  1631.90
                             1667.96  1690.81  1706.07  1713.30  1716.26
                             1783.27  1864.69  1929.95  1936.37  1998.05
                             2142.14  2152.50  2173.32  2187.21  2204.08
                             2323.78  2386.25  2417.39  2694.37  4477.25
                             4605.63  4630.63  4645.27  4660.43  4673.03
                             4681.27  5087.10  5253.62

 Zero-point correction=                           0.173454 (Hartree/Particle)
 Thermal correction to Energy=                    0.186472
 Thermal correction to Enthalpy=                  0.187416
 Thermal correction to Gibbs Free Energy=         0.133839
 Sum of electronic and zero-point Energies=          -1063.591595
 Sum of electronic and thermal Energies=             -1063.578576
 Sum of electronic and thermal Enthalpies=           -1063.577632
 Sum of electronic and thermal Free Energies=        -1063.631210

                     E (Thermal)             CV                S
                      KCal/Mol        Cal/Mol-Kelvin    Cal/Mol-Kelvin
 Total                  117.013             48.630            112.764
 Electronic               0.000              0.000              0.000
 Translational            0.889              2.981             42.000
 Rotational               0.889              2.981             31.642
 Vibrational            115.235             42.668             39.121
 Vibration     1          0.596              1.974              4.538
 Vibration     2          0.599              1.966              4.020
 Vibration     3          0.604              1.949              3.464
 Vibration     4          0.608              1.936              3.156
 Vibration     5          0.616              1.910              2.763
 Vibration     6          0.618              1.902              2.662
 Vibration     7          0.641              1.828              2.060
 Vibration     8          0.659              1.775              1.783
 Vibration     9          0.667              1.750              1.679
 Vibration    10          0.690              1.682              1.442
 Vibration    11          0.699              1.655              1.363
 Vibration    12          0.710              1.623              1.280
 Vibration    13          0.742              1.535              1.083
 Vibration    14          0.759              1.490              0.997
 Vibration    15          0.791              1.406              0.860
 Vibration    16          0.808              1.363              0.799
 Vibration    17          0.841              1.284              0.698
 Vibration    18          0.894              1.164              0.568
 Vibration    19          0.920              1.108              0.515
 Vibration    20          0.933              1.082              0.492

                           ! Non-Optimized Parameters !
 Normal termination of Gaussian 16 at Sun May 22 15:58:22 2022.
