 Gaussian 16, Revision C.01,
 Gaussian 16:  ES64L-G16RevC.01  3-Jul-2019

 --------------------------------------------------
 #M062X/gen 6D INT(grid=ultrafine) OPT Freq=noraman
 --------------------------------------------------

 ----------
 HA.11.freq
 ----------
 Symbolic Z-matrix:
 Charge =  0 Multiplicity = 1

 SCF Done:  E(RM062X) =  -930.586786643     A.U. after   16 cycles
 SCF Done:  E(RM062X) =  -930.588727515     A.U. after   14 cycles
 SCF Done:  E(RM062X) =  -930.588936708     A.U. after   13 cycles
 SCF Done:  E(RM062X) =  -930.588965506     A.U. after   13 cycles
 SCF Done:  E(RM062X) =  -930.588974250     A.U. after   13 cycles
 SCF Done:  E(RM062X) =  -930.588977412     A.U. after   12 cycles
 SCF Done:  E(RM062X) =  -930.588978186     A.U. after   12 cycles
 Optimization completed.
    -- Stationary point found.
 Normal termination of Gaussian 16 at Wed Jun 29 13:35:23 2022.

 ------------------------------------------------------------------
 #N Geom=AllCheck Guess=TCheck SCRF=Check GenChk RM062X/ChkBas Freq
 ------------------------------------------------------------------

 Structure from the checkpoint file:  "/jobfs/48733082.gadi-pbs/Gau-1323849.chk"
 ----------
 HA.11.freq
 ----------
 Charge =  0 Multiplicity = 1

                         Standard orientation:
 ---------------------------------------------------------------------
 Center     Atomic      Atomic             Coordinates (Angstroms)
 Number     Number       Type             X           Y           Z
 ---------------------------------------------------------------------
      1          6           0       -0.529804    0.059816   -0.101038
      2          6           0        0.252468   -1.088604   -0.095032
      3          1           0       -0.220539   -2.064509   -0.156540
      4          6           0        1.640791   -0.962010   -0.040746
      5          1           0        2.253730   -1.858763   -0.044842
      6          6           0        2.244252    0.294782    0.004356
      7          6           0        3.755994    0.476782    0.058074
      8          6           0        1.429999    1.435680   -0.011891
      9          1           0        1.891827    2.420879    0.006645
     10          6           0        0.046434    1.329837   -0.066627
     11          1           0       -0.586112    2.211971   -0.107628
     12         16           0       -2.306911   -0.091999   -0.132797
     13          8           0       -2.838910    1.140100   -0.687074
     14          8           0       -2.621082   -1.404471   -0.668658
     15          7           0       -2.824161   -0.123565    1.451969
     16          1           0       -2.637679    0.747861    1.941566
     17          1           0       -2.484174   -0.936689    1.959004
     18          7           0        4.594938   -0.706197    0.067336
     19          1           0        4.057558    1.093130   -0.797240
     20          1           0        3.999317    1.066140    0.950327
     21          1           0        4.470431   -1.265736   -0.771826
     22          1           0        4.409910   -1.296690    0.873440
 ---------------------------------------------------------------------

 SCF Done:  E(RM062X) =  -930.588978186     A.U. after    1 cycles

 The electronic state is 1-A.
 Alpha  occ. eigenvalues --  -90.17045 -19.64716 -19.64705 -14.80611 -14.76574
 Alpha  occ. eigenvalues --  -10.60094 -10.59767 -10.58967 -10.58892 -10.58869
 Alpha  occ. eigenvalues --  -10.58160 -10.58148  -8.48001  -6.40220  -6.40170
 Alpha  occ. eigenvalues --   -6.40076  -1.25060  -1.13724  -1.02980  -1.01998
 Alpha  occ. eigenvalues --   -0.98945  -0.89444  -0.87466  -0.79902  -0.74410
 Alpha  occ. eigenvalues --   -0.72071  -0.68588  -0.64579  -0.62279  -0.59660
 Alpha  occ. eigenvalues --   -0.59354  -0.56407  -0.56366  -0.54273  -0.52641
 Alpha  occ. eigenvalues --   -0.51819  -0.49581  -0.48839  -0.46305  -0.45424
 Alpha  occ. eigenvalues --   -0.43047  -0.42118  -0.40588  -0.39698  -0.38792
 Alpha  occ. eigenvalues --   -0.37504  -0.33672  -0.32746  -0.32439
 Alpha virt. eigenvalues --   -0.02119  -0.00861  -0.00328   0.00892   0.01979
 Alpha virt. eigenvalues --    0.02976   0.03886   0.04146   0.05285   0.05784
 Alpha virt. eigenvalues --    0.06886   0.07025   0.07892   0.08242   0.08857

 Mulliken charges:
               1
     1  C   -1.351710
     2  C   -0.108484
     3  H    0.254344
     4  C   -0.707918
     5  H    0.209128
     6  C   -0.134587
     7  C    0.025131
     8  C    0.218816
     9  H    0.216077
    10  C    0.291677
    11  H    0.254362
    12  S    1.544514
    13  O   -0.530694
    14  O   -0.532593
    15  N   -0.930719
    16  H    0.438657
    17  H    0.439487
    18  N   -0.892070
    19  H    0.240283
    20  H    0.237737
    21  H    0.410370
    22  H    0.408192
 Sum of Mulliken charges =  -0.00000

 Dipole moment (field-independent basis, Debye):
    X=              4.1980    Y=              0.0723    Z=              3.6759  Tot=              5.5804
 Quadrupole moment (field-independent basis, Debye-Ang):
   XX=           -100.7044   YY=            -74.0941   ZZ=            -75.4416
   XY=             -2.2578   XZ=             -9.9644   YZ=             -0.2486

  Exact polarizability:     158.694       0.825     118.091      -1.566       0.266      82.406
 Approx polarizability:     166.776       0.298     166.718       0.850       0.691     105.956

                      1                      2                      3
                      A                      A                      A
 Frequencies --     29.6494                51.4994                81.6157
 Red. masses --      2.8853                 4.2137                 3.3682
 Frc consts  --      0.0015                 0.0066                 0.0132
 IR Inten    --      1.5232                 1.7387                 4.4303

                      4                      5                      6
                      A                      A                      A
 Frequencies --    141.7336               188.7948               229.5505
 Red. masses --      6.5215                 3.5664                 4.7380
 Frc consts  --      0.0772                 0.0749                 0.1471
 IR Inten    --      4.3006                 6.5331                 1.6501

                      7                      8                      9
                      A                      A                      A
 Frequencies --    273.1658               291.4477               326.9116
 Red. masses --      2.9469                 2.1381                 2.4934
 Frc consts  --      0.1296                 0.1070                 0.1570
 IR Inten    --      5.7001                 8.8797                22.0687

                     10                     11                     12
                      A                      A                      A
 Frequencies --    369.5362               404.8135               420.9606
 Red. masses --      1.3956                 3.2609                 2.7339
 Frc consts  --      0.1123                 0.3148                 0.2854
 IR Inten    --     45.3589                 1.8753                 4.7462

                     13                     14                     15
                      A                      A                      A
 Frequencies --    450.7231               466.5425               471.6856
 Red. masses --      3.2620                 4.4158                 3.8723
 Frc consts  --      0.3904                 0.5663                 0.5076
 IR Inten    --     17.3502                 1.4545                 3.5545

                     16                     17                     18
                      A                      A                      A
 Frequencies --    539.3154               566.7851               637.1008
 Red. masses --      3.9178                 4.7333                 3.4460
 Frc consts  --      0.6714                 0.8959                 0.8241
 IR Inten    --     64.0546                39.9719                78.5187

                     19                     20                     21
                      A                      A                      A
 Frequencies --    643.9983               708.8132               718.5049
 Red. masses --      4.2366                 2.5721                 3.0597
 Frc consts  --      1.0352                 0.7614                 0.9307
 IR Inten    --     61.3236               355.6777                29.0352

                     22                     23                     24
                      A                      A                      A
 Frequencies --    803.1428               820.6876               862.3824
 Red. masses --      3.1044                 1.3681                 2.5822
 Frc consts  --      1.1798                 0.5429                 1.1315
 IR Inten    --    200.5522                41.7039               125.6381

                     25                     26                     27
                      A                      A                      A
 Frequencies --    872.8621               875.4828               921.2144
 Red. masses --      2.3608                 1.2635                 1.4552
 Frc consts  --      1.0597                 0.5706                 0.7276
 IR Inten    --     93.6689                 3.5073                 7.4952

                     28                     29                     30
                      A                      A                      A
 Frequencies --   1002.6776              1012.6054              1033.4147
 Red. masses --      1.3275                 1.3600                 3.4595
 Frc consts  --      0.7864                 0.8216                 2.1767
 IR Inten    --      0.0844                 0.0732                 2.3835

                     31                     32                     33
                      A                      A                      A
 Frequencies --   1108.3223              1124.7802              1130.7929
 Red. masses --      1.2498                 3.8208                 2.1913
 Frc consts  --      0.9046                 2.8480                 1.6509
 IR Inten    --      1.0997                29.3939                21.9501

                     34                     35                     36
                      A                      A                      A
 Frequencies --   1154.4945              1183.8494              1190.5166
 Red. masses --      1.7763                 6.3351                 1.2340
 Frc consts  --      1.3949                 5.2312                 1.0305
 IR Inten    --      5.0485               224.0998                 0.4875

                     37                     38                     39
                      A                      A                      A
 Frequencies --   1213.2839              1230.3727              1320.2673
 Red. masses --      1.2270                 2.6366                 1.7038
 Frc consts  --      1.0642                 2.3516                 1.7498
 IR Inten    --      4.9027                 5.0140                12.2405

                     40                     41                     42
                      A                      A                      A
 Frequencies --   1340.9275              1387.5579              1396.8504
 Red. masses --      2.6418                 2.3681                 1.2567
 Frc consts  --      2.7988                 2.6863                 1.4447
 IR Inten    --      3.1317                89.4077                12.4371

                     43                     44                     45
                      A                      A                      A
 Frequencies --   1397.2914              1458.0041              1493.4819
 Red. masses --      3.3081                 2.7480                 1.0873
 Frc consts  --      3.8055                 3.4417                 1.4288
 IR Inten    --    121.1426                33.2068                 7.3156

                     46                     47                     48
                      A                      A                      A
 Frequencies --   1547.8506              1623.2466              1662.4303
 Red. masses --      2.4241                 1.1098                 7.0575
 Frc consts  --      3.4219                 1.7230                11.4918
 IR Inten    --      3.4564                52.4256                 1.8336

                     49                     50                     51
                      A                      A                      A
 Frequencies --   1683.9049              1703.2073              3076.3776
 Red. masses --      6.0098                 1.0978                 1.0605
 Frc consts  --     10.0402                 1.8764                 5.9135
 IR Inten    --     14.0296                24.3879                17.7900

                     52                     53                     54
                      A                      A                      A
 Frequencies --   3113.2303              3205.1205              3226.8826
 Red. masses --      1.1040                 1.0898                 1.0879
 Frc consts  --      6.3044                 6.5962                 6.6741
 IR Inten    --     11.2151                 8.0894                 4.6606

                     55                     56                     57
                      A                      A                      A
 Frequencies --   3240.1888              3242.8855              3532.5925
 Red. masses --      1.0935                 1.0945                 1.0490
 Frc consts  --      6.7640                 6.7817                 7.7126
 IR Inten    --      0.9425                 2.2381                 2.0011

                     58                     59                     60
                      A                      A                      A
 Frequencies --   3542.8700              3626.7500              3660.9263
 Red. masses --      1.0470                 1.0951                 1.0997
 Frc consts  --      7.7428                 8.4866                 8.6840
 IR Inten    --     37.3639                 5.7974                40.7433

 - Thermochemistry -
 -------------------
 Temperature   298.150 Kelvin.  Pressure   1.00000 Atm.
 Atom     1 has atomic number  6 and mass  12.00000

 Molecular mass:   186.04630 amu.
 Principal axes and moments of inertia in atomic units:
                           1         2         3
     Eigenvalues --   772.420884486.607274861.35482
           X            0.99997  -0.00264  -0.00750
           Y            0.00262   0.99999  -0.00177
           Z            0.00751   0.00175   0.99997
 This molecule is an asymmetric top.
 Rotational symmetry number  1.
 Warning -- assumption of classical behavior for rotation
           may cause significant error
 Rotational temperatures (Kelvin)      0.11213     0.01930     0.01782
 Rotational constants (GHZ):           2.33647     0.40225     0.37124
 Zero-point vibrational energy     460782.8 (Joules/Mol)
                                  110.12974 (Kcal/Mol)
 Warning -- explicit consideration of  17 degrees of freedom as
           vibrations may cause significant error
 Vibrational temperatures:     42.66    74.10   117.43   203.92   271.63
          (Kelvin)            330.27   393.02   419.33   470.35   531.68
                              582.44   605.67   648.49   671.25   678.65
                              775.95   815.48   916.65   926.57  1019.82
                             1033.77  1155.54  1180.79  1240.78  1255.85
                             1259.62  1325.42  1442.63  1456.91  1486.85
                             1594.63  1618.31  1626.96  1661.06  1703.30
                             1712.89  1745.64  1770.23  1899.57  1929.30
                             1996.39  2009.76  2010.39  2097.74  2148.79
                             2227.01  2335.49  2391.87  2422.76  2450.54
                             4426.22  4479.24  4611.45  4642.76  4661.91
                             4665.79  5082.61  5097.40  5218.08  5267.26

 Zero-point correction=                           0.175503 (Hartree/Particle)
 Thermal correction to Energy=                    0.187111
 Thermal correction to Enthalpy=                  0.188055
 Thermal correction to Gibbs Free Energy=         0.136801
 Sum of electronic and zero-point Energies=           -930.413475
 Sum of electronic and thermal Energies=              -930.401867
 Sum of electronic and thermal Enthalpies=            -930.400923
 Sum of electronic and thermal Free Energies=         -930.452178

                     E (Thermal)             CV                S
                      KCal/Mol        Cal/Mol-Kelvin    Cal/Mol-Kelvin
 Total                  117.414             43.921            107.874
 Electronic               0.000              0.000              0.000
 Translational            0.889              2.981             41.569
 Rotational               0.889              2.981             31.200
 Vibrational            115.636             37.960             35.105
 Vibration     1          0.593              1.984              5.853
 Vibration     2          0.596              1.977              4.759
 Vibration     3          0.600              1.962              3.852
 Vibration     4          0.615              1.912              2.780
 Vibration     5          0.633              1.855              2.240
 Vibration     6          0.652              1.796              1.882
 Vibration     7          0.676              1.723              1.576
 Vibration     8          0.687              1.690              1.466
 Vibration     9          0.711              1.622              1.275
 Vibration    10          0.742              1.535              1.082
 Vibration    11          0.770              1.460              0.945
 Vibration    12          0.783              1.425              0.889
 Vibration    13          0.810              1.359              0.794
 Vibration    14          0.824              1.324              0.747
 Vibration    15          0.829              1.313              0.733
 Vibration    16          0.894              1.163              0.567
 Vibration    17          0.923              1.103              0.510

                           ! Non-Optimized Parameters !
 Normal termination of Gaussian 16 at Wed Jun 29 13:39:21 2022.
