 Gaussian 16, Revision C.01,
 Gaussian 16:  ES64L-G16RevC.01  3-Jul-2019

 --------------------------------------------------
 #M062X/gen 6D INT(grid=ultrafine) OPT Freq=noraman
 --------------------------------------------------

 ---------------
 HA.18.a1f3.freq
 ---------------
 Symbolic Z-matrix:
 Charge =  0 Multiplicity = 1

 SCF Done:  E(RM062X) =  -1861.58620748     A.U. after   17 cycles
 SCF Done:  E(RM062X) =  -1861.58909724     A.U. after   14 cycles
 SCF Done:  E(RM062X) =  -1861.58942547     A.U. after   14 cycles
 SCF Done:  E(RM062X) =  -1861.58947363     A.U. after   14 cycles
 SCF Done:  E(RM062X) =  -1861.58949317     A.U. after   12 cycles
 SCF Done:  E(RM062X) =  -1861.58949948     A.U. after   12 cycles
 SCF Done:  E(RM062X) =  -1861.58950110     A.U. after   11 cycles
 SCF Done:  E(RM062X) =  -1861.58950178     A.U. after   11 cycles
 SCF Done:  E(RM062X) =  -1861.58950216     A.U. after   10 cycles
 SCF Done:  E(RM062X) =  -1861.58950228     A.U. after   10 cycles
 SCF Done:  E(RM062X) =  -1861.58950229     A.U. after   10 cycles
 Optimization completed.
    -- Stationary point found.
 Normal termination of Gaussian 16 at Fri May 27 10:16:42 2022.

 ------------------------------------------------------------------
 #N Geom=AllCheck Guess=TCheck SCRF=Check GenChk RM062X/ChkBas Freq
 ------------------------------------------------------------------

 Structure from the checkpoint file:  "/jobfs/41454599.gadi-pbs/Gau-3100259.chk"
 ---------------
 HA.18.a1f3.freq
 ---------------
 Charge =  0 Multiplicity = 1

                         Standard orientation:
 ---------------------------------------------------------------------
 Center     Atomic      Atomic             Coordinates (Angstroms)
 Number     Number       Type             X           Y           Z
 ---------------------------------------------------------------------
      1          6           0       -3.207740   -0.223227    0.055283
      2         16           0       -4.363480   -1.558440    0.158325
      3          8           0       -3.764902   -2.616300   -0.627693
      4          8           0       -4.748359   -1.702702    1.545060
      5          7           0       -5.724660   -1.073644   -0.644175
      6          1           0       -5.575079   -0.891959   -1.632881
      7          1           0       -6.239449   -0.340935   -0.163256
      8          8           0       -3.521021    0.925639    0.706027
      9          6           0       -2.511540    1.789294    0.479967
     10          6           0       -1.568826    1.201072   -0.305833
     11          6           0       -2.021970   -0.124901   -0.596175
     12         16           0       -0.090209    1.993347   -0.856496
     13          6           0        1.192785    1.256100    0.116581
     14          8           0       -0.222395    3.393379   -0.459419
     15          8           0        0.112544    1.596208   -2.245565
     16          6           0        1.513915    1.808585    1.351983
     17          6           0        2.499996    1.203520    2.120466
     18          6           0        3.154750    0.062091    1.647801
     19          6           0        2.841558   -0.488795    0.392126
     20          6           0        1.847466    0.121143   -0.362290
     21          8           0        4.105426   -0.572034    2.372684
     22          6           0        3.604631   -1.687954   -0.109915
     23          7           0        4.943723   -1.328735   -0.561035
     24          6           0        4.903089   -0.539915   -1.780764
     25          6           0        5.754005   -2.520173   -0.744828
     26          1           0       -2.589187    2.772925    0.918182
     27          1           0       -1.545297   -0.885415   -1.198314
     28          1           0        1.007026    2.705262    1.695921
     29          1           0        2.767897    1.619196    3.088970
     30          1           0        1.594187   -0.271409   -1.344954
     31          1           0        4.243106   -0.120913    3.217966
     32          1           0        3.025065   -2.176742   -0.918312
     33          1           0        3.708726   -2.411225    0.705436
     34          1           0        4.344262    0.385418   -1.617275
     35          1           0        4.431358   -1.090342   -2.618567
     36          1           0        5.922315   -0.273443   -2.073886
     37          1           0        5.822735   -3.068680    0.199060
     38          1           0        6.763969   -2.230721   -1.048702
     39          1           0        5.340883   -3.197417   -1.517352
 ---------------------------------------------------------------------

 SCF Done:  E(RM062X) =  -1861.58950229     A.U. after    1 cycles

 The electronic state is 1-A.
 Alpha  occ. eigenvalues --  -90.19345 -90.16391 -19.77137 -19.70422 -19.66452
 Alpha  occ. eigenvalues --  -19.66340 -19.65271 -19.65208 -14.82129 -14.76324
 Alpha  occ. eigenvalues --  -10.66219 -10.66065 -10.64978 -10.61133 -10.60811
 Alpha  occ. eigenvalues --  -10.59928 -10.59466 -10.59081 -10.58779 -10.58568
 Alpha  occ. eigenvalues --  -10.58374 -10.56861 -10.56629  -8.50173  -8.47597
 Alpha  occ. eigenvalues --   -6.42393  -6.42339  -6.42304  -6.39768  -6.39745
 Alpha  occ. eigenvalues --   -6.39681  -1.30317  -1.26818  -1.24474  -1.21810
 Alpha  occ. eigenvalues --   -1.15571  -1.13806  -1.04701  -1.04496  -0.99638
 Alpha  occ. eigenvalues --   -0.96568  -0.91597  -0.90049  -0.88501  -0.81179
 Alpha  occ. eigenvalues --   -0.80382  -0.80177  -0.78302  -0.74739  -0.72865
 Alpha  occ. eigenvalues --   -0.70793  -0.69552  -0.68332  -0.65848  -0.64489
 Alpha  occ. eigenvalues --   -0.63942  -0.61843  -0.61067  -0.59421  -0.59236
 Alpha  occ. eigenvalues --   -0.58256  -0.57329  -0.55679  -0.55106  -0.54749
 Alpha  occ. eigenvalues --   -0.54407  -0.54228  -0.53207  -0.52452  -0.51472
 Alpha  occ. eigenvalues --   -0.51366  -0.50181  -0.48446  -0.47924  -0.46274
 Alpha  occ. eigenvalues --   -0.45043  -0.44626  -0.44027  -0.43718  -0.43021
 Alpha  occ. eigenvalues --   -0.42559  -0.42050  -0.41725  -0.41526  -0.41363
 Alpha  occ. eigenvalues --   -0.40524  -0.40117  -0.39609  -0.38762  -0.37285
 Alpha  occ. eigenvalues --   -0.33727  -0.33654  -0.30725  -0.28662
 Alpha virt. eigenvalues --   -0.02962  -0.01580  -0.00759  -0.00632  -0.00296
 Alpha virt. eigenvalues --    0.01286   0.01485   0.02528   0.02667   0.02896
 Alpha virt. eigenvalues --    0.03464   0.03667   0.04056   0.04526   0.04918

 Mulliken charges:
               1
     1  C   -1.013371
     2  S    1.872564
     3  O   -0.543126
     4  O   -0.484972
     5  N   -0.929367
     6  H    0.441902
     7  H    0.449941
     8  O   -0.201879
     9  C   -0.061112
    10  C   -0.914152
    11  C    0.789054
    12  S    0.654808
    13  C   -0.144695
    14  O   -0.444613
    15  O   -0.358165
    16  C   -0.312925
    17  C   -0.178128
    18  C   -0.332559
    19  C    0.230788
    20  C    0.043674
    21  O   -0.645837
    22  C   -0.203491
    23  N   -0.229804
    24  C   -0.522010
    25  C   -0.477374
    26  H    0.274197
    27  H    0.288089
    28  H    0.256676
    29  H    0.206628
    30  H    0.258548
    31  H    0.515522
    32  H    0.206836
    33  H    0.229020
    34  H    0.236451
    35  H    0.202867
    36  H    0.212530
    37  H    0.212026
    38  H    0.211633
    39  H    0.203827
 Sum of Mulliken charges =  -0.00000

 Dipole moment (field-independent basis, Debye):
    X=              1.3812    Y=              1.4810    Z=              2.1352  Tot=              2.9428
 Quadrupole moment (field-independent basis, Debye-Ang):
   XX=           -132.3179   YY=           -168.2197   ZZ=           -145.4606
   XY=            -21.2406   XZ=             18.2674   YZ=             14.9856

  Exact polarizability:     262.819     -14.745     208.846       5.979      12.204     193.882
 Approx polarizability:     271.651     -23.138     267.872       4.798      23.641     266.614

                      1                      2                      3
                      A                      A                      A
 Frequencies --     13.0045                16.8535                22.1480
 Red. masses --      5.1208                 6.9880                 6.2957
 Frc consts  --      0.0005                 0.0012                 0.0018
 IR Inten    --      0.4684                 3.4343                 2.8817

                      4                      5                      6
                      A                      A                      A
 Frequencies --     43.8217                56.9512                57.8836
 Red. masses --      4.4405                 3.0173                 5.2376
 Frc consts  --      0.0050                 0.0058                 0.0103
 IR Inten    --      2.0643                 0.9542                 0.6426

                      7                      8                      9
                      A                      A                      A
 Frequencies --     89.4227                93.7775                97.4471
 Red. masses --      5.5279                 5.8100                 5.1371
 Frc consts  --      0.0260                 0.0301                 0.0287
 IR Inten    --      1.2584                 4.7404                 9.5243

                     10                     11                     12
                      A                      A                      A
 Frequencies --    129.7453               150.9057               182.2108
 Red. masses --      6.3958                 6.0489                 7.5207
 Frc consts  --      0.0634                 0.0812                 0.1471
 IR Inten    --      0.7326                 0.7526                 2.0630

                     13                     14                     15
                      A                      A                      A
 Frequencies --    207.6725               230.9358               248.8089
 Red. masses --      5.8349                 7.1816                 2.4125
 Frc consts  --      0.1483                 0.2257                 0.0880
 IR Inten    --      2.0296                 1.0245                 2.5966

                     16                     17                     18
                      A                      A                      A
 Frequencies --    255.3117               269.1437               284.0873
 Red. masses --      1.2545                 2.1275                 2.7719
 Frc consts  --      0.0482                 0.0908                 0.1318
 IR Inten    --      0.1418                 0.6296                 7.8338

                     19                     20                     21
                      A                      A                      A
 Frequencies --    297.7204               305.8635               321.3207
 Red. masses --      2.2286                 3.3949                 2.5513
 Frc consts  --      0.1164                 0.1871                 0.1552
 IR Inten    --      2.1878                 6.1916                 0.7990

                     22                     23                     24
                      A                      A                      A
 Frequencies --    337.7379               358.1871               371.4080
 Red. masses --      4.3812                 4.3833                 1.2870
 Frc consts  --      0.2944                 0.3313                 0.1046
 IR Inten    --     33.3504                 0.5281                78.4142

                     25                     26                     27
                      A                      A                      A
 Frequencies --    382.9534               400.1885               405.4511
 Red. masses --      4.0976                 5.4535                 2.4715
 Frc consts  --      0.3541                 0.5146                 0.2394
 IR Inten    --     14.6388                 3.5504                 8.1773

                     28                     29                     30
                      A                      A                      A
 Frequencies --    411.1418               445.4996               448.7633
 Red. masses --      3.4107                 2.4575                 2.8190
 Frc consts  --      0.3397                 0.2874                 0.3345
 IR Inten    --      5.9952                 0.0802                12.1427

                     31                     32                     33
                      A                      A                      A
 Frequencies --    470.1562               493.4637               501.0141
 Red. masses --      3.5229                 3.6128                 9.1962
 Frc consts  --      0.4588                 0.5183                 1.3601
 IR Inten    --     13.3164                 8.1034                39.4924

                     34                     35                     36
                      A                      A                      A
 Frequencies --    514.8975               537.0048               553.7765
 Red. masses --      3.8327                 9.3223                 4.2767
 Frc consts  --      0.5987                 1.5839                 0.7727
 IR Inten    --      4.8508                28.1214                71.4220

                     37                     38                     39
                      A                      A                      A
 Frequencies --    578.1923               625.4737               636.5547
 Red. masses --      2.3210                 6.1947                 3.7034
 Frc consts  --      0.4572                 1.4279                 0.8842
 IR Inten    --     62.0982                89.0444                50.2117

                     40                     41                     42
                      A                      A                      A
 Frequencies --    653.8815               663.7697               670.4537
 Red. masses --      6.1195                 3.5498                 6.2770
 Frc consts  --      1.5416                 0.9215                 1.6624
 IR Inten    --    134.2898               538.3424                20.4173

                     43                     44                     45
                      A                      A                      A
 Frequencies --    700.0798               758.0583               808.2952
 Red. masses --      6.8913                 4.2134                 3.9398
 Frc consts  --      1.9900                 1.4265                 1.5166
 IR Inten    --    113.2274                 6.5772                 3.1480

                     46                     47                     48
                      A                      A                      A
 Frequencies --    839.9911               860.8973               875.1835
 Red. masses --      1.6111                 1.4181                 3.1338
 Frc consts  --      0.6698                 0.6192                 1.4142
 IR Inten    --     26.1934                 3.5245                94.0430

                     49                     50                     51
                      A                      A                      A
 Frequencies --    880.9178               884.8627               925.6426
 Red. masses --      1.5700                 3.5131                 4.9062
 Frc consts  --      0.7178                 1.6206                 2.4768
 IR Inten    --      7.9466                19.3531                38.5268

                     52                     53                     54
                      A                      A                      A
 Frequencies --    953.5261               957.4189               972.0234
 Red. masses --      1.5583                 4.3662                 6.0007
 Frc consts  --      0.8348                 2.3581                 3.3404
 IR Inten    --     16.0065                 8.6936                 5.0107

                     55                     56                     57
                      A                      A                      A
 Frequencies --    978.6712               998.4153              1074.8815
 Red. masses --      1.3535                 1.7850                 1.9648
 Frc consts  --      0.7638                 1.0484                 1.3375
 IR Inten    --      1.0687                 4.5206                41.9385

                     58                     59                     60
                      A                      A                      A
 Frequencies --   1081.5433              1088.3097              1105.8534
 Red. masses --      1.5140                 1.5718                 1.2547
 Frc consts  --      1.0434                 1.0969                 0.9040
 IR Inten    --     10.9808                82.1969                 0.7565

                     61                     62                     63
                      A                      A                      A
 Frequencies --   1117.4221              1130.7783              1140.0935
 Red. masses --      2.2560                 1.2648                 2.6544
 Frc consts  --      1.6597                 0.9529                 2.0328
 IR Inten    --    118.1033                 7.4685               212.7383

                     64                     65                     66
                      A                      A                      A
 Frequencies --   1168.7123              1176.2630              1182.2206
 Red. masses --      2.5978                 4.9334                 1.4063
 Frc consts  --      2.0906                 4.0217                 1.1580
 IR Inten    --     50.7239               177.0422                 4.4736

                     67                     68                     69
                      A                      A                      A
 Frequencies --   1192.9112              1196.2704              1227.0960
 Red. masses --      1.3273                 2.0559                 1.7607
 Frc consts  --      1.1128                 1.7334                 1.5621
 IR Inten    --     11.0169                94.2500                19.7148

                     70                     71                     72
                      A                      A                      A
 Frequencies --   1253.8651              1262.5889              1277.3245
 Red. masses --      2.2014                 5.0682                 4.9307
 Frc consts  --      2.0391                 4.7602                 4.7398
 IR Inten    --     64.0036                 7.4871                 2.7530

                     73                     74                     75
                      A                      A                      A
 Frequencies --   1305.9826              1321.0038              1333.4789
 Red. masses --      2.0133                 2.6729                 1.9052
 Frc consts  --      2.0231                 2.7481                 1.9960
 IR Inten    --     26.4803                21.2254               107.6077

                     76                     77                     78
                      A                      A                      A
 Frequencies --   1344.3922              1350.7065              1384.1512
 Red. masses --      2.5076                 5.0483                 3.8537
 Frc consts  --      2.6703                 5.4265                 4.3501
 IR Inten    --     89.0637                88.0163                59.3999

                     79                     80                     81
                      A                      A                      A
 Frequencies --   1413.1664              1415.0553              1416.1831
 Red. masses --      9.0183                 6.3421                 1.5746
 Frc consts  --     10.6111                 7.4822                 1.8607
 IR Inten    --    176.1809                60.2294                34.7730

                     82                     83                     84
                      A                      A                      A
 Frequencies --   1457.5209              1478.9088              1490.4307
 Red. masses --      1.1765                 2.4419                 1.4813
 Frc consts  --      1.4725                 3.1468                 1.9387
 IR Inten    --      1.6120                36.6288                 9.3674

                     85                     86                     87
                      A                      A                      A
 Frequencies --   1506.0370              1509.8467              1519.4196
 Red. masses --      1.1065                 1.0455                 1.0710
 Frc consts  --      1.4787                 1.4042                 1.4567
 IR Inten    --      2.2737                 6.3451                12.8988

                     88                     89                     90
                      A                      A                      A
 Frequencies --   1526.0810              1533.7259              1558.2199
 Red. masses --      1.0457                 1.0576                 3.1035
 Frc consts  --      1.4348                 1.4658                 4.4398
 IR Inten    --     14.8352                16.3152                59.0653

                     91                     92                     93
                      A                      A                      A
 Frequencies --   1562.2946              1615.6172              1645.8578
 Red. masses --      6.5522                 1.1142                 7.1289
 Frc consts  --      9.4225                 1.7135                11.3777
 IR Inten    --     35.0726                60.2602                47.8242

                     94                     95                     96
                      A                      A                      A
 Frequencies --   1673.4843              1686.3277              2959.5086
 Red. masses --      6.5830                 7.1051                 1.0720
 Frc consts  --     10.8622                11.9044                 5.5322
 IR Inten    --     56.5851                55.6761                34.3696

                     97                     98                     99
                      A                      A                      A
 Frequencies --   2965.0815              2973.1667              3116.9981
 Red. masses --      1.0599                 1.0605                 1.0724
 Frc consts  --      5.4901                 5.5235                 6.1389
 IR Inten    --     45.2605               158.7268                29.5388

                    100                    101                    102
                      A                      A                      A
 Frequencies --   3122.0180              3124.5724              3163.5244
 Red. masses --      1.0849                 1.0735                 1.1044
 Frc consts  --      6.2306                 6.1751                 6.5119
 IR Inten    --     18.5756                18.9254                19.4505

                    103                    104                    105
                      A                      A                      A
 Frequencies --   3168.3092              3211.0869              3220.2336
 Red. masses --      1.1038                 1.0905                 1.0914
 Frc consts  --      6.5280                 6.6248                 6.6681
 IR Inten    --     29.1010                 9.7156                 1.5959

                    106                    107                    108
                      A                      A                      A
 Frequencies --   3243.8051              3317.7023              3336.0012
 Red. masses --      1.0937                 1.0994                 1.1006
 Frc consts  --      6.7806                 7.1298                 7.2168
 IR Inten    --      1.8960                 9.7904                11.1943

                    109                    110                    111
                      A                      A                      A
 Frequencies --   3546.1865              3667.9522              3821.9924
 Red. masses --      1.0463                 1.1014                 1.0665
 Frc consts  --      7.7524                 8.7308                 9.1788
 IR Inten    --     60.7470                59.8002                98.8986

 - Thermochemistry -
 -------------------
 Temperature   298.150 Kelvin.  Pressure   1.00000 Atm.
 Atom     1 has atomic number  6 and mass  12.00000

 Molecular mass:   360.04498 amu.
 Principal axes and moments of inertia in atomic units:
                           1         2         3
     Eigenvalues --  5084.68603********************
           X            0.99982  -0.01868  -0.00453
           Y            0.01888   0.99851   0.05121
           Z            0.00357  -0.05128   0.99868
 This molecule is an asymmetric top.
 Rotational symmetry number  1.
 Warning -- assumption of classical behavior for rotation
           may cause significant error
 Rotational temperatures (Kelvin)      0.01703     0.00511     0.00464
 Rotational constants (GHZ):           0.35494     0.10640     0.09669
 Zero-point vibrational energy     783022.6 (Joules/Mol)
                                  187.14689 (Kcal/Mol)
 Warning -- explicit consideration of  37 degrees of freedom as
           vibrations may cause significant error
 Vibrational temperatures:     18.71    24.25    31.87    63.05    81.94
          (Kelvin)             83.28   128.66   134.92   140.20   186.67
                              217.12   262.16   298.79   332.27   357.98
                              367.34   387.24   408.74   428.35   440.07
                              462.31   485.93   515.35   534.37   550.98
                              575.78   583.35   591.54   640.97   645.67
                              676.45   709.98   720.85   740.82   772.63
                              796.76   831.89   899.92   915.86   940.79
                              955.02   964.63  1007.26  1090.68  1162.96
                             1208.56  1238.64  1259.19  1267.44  1273.12
                             1331.79  1371.91  1377.51  1398.52  1408.09
                             1436.50  1546.51  1556.10  1565.83  1591.08
                             1607.72  1626.94  1640.34  1681.52  1692.38
                             1700.95  1716.33  1721.17  1765.52  1804.03
                             1816.58  1837.79  1879.02  1900.63  1918.58
                             1934.28  1943.37  1991.48  2033.23  2035.95
                             2037.57  2097.05  2127.82  2144.40  2166.85
                             2172.33  2186.11  2195.69  2206.69  2241.93
                             2247.79  2324.51  2368.02  2407.77  2426.25
                             4258.07  4266.09  4277.72  4484.67  4491.89
                             4495.56  4551.61  4558.49  4620.04  4633.20
                             4667.11  4773.43  4799.76  5102.17  5277.37
                             5498.99

 Zero-point correction=                           0.298238 (Hartree/Particle)
 Thermal correction to Energy=                    0.320854
 Thermal correction to Enthalpy=                  0.321798
 Thermal correction to Gibbs Free Energy=         0.242956
 Sum of electronic and zero-point Energies=          -1861.291265
 Sum of electronic and thermal Energies=             -1861.268648
 Sum of electronic and thermal Enthalpies=           -1861.267704
 Sum of electronic and thermal Free Energies=        -1861.346546

                     E (Thermal)             CV                S
                      KCal/Mol        Cal/Mol-Kelvin    Cal/Mol-Kelvin
 Total                  201.339             84.413            165.938
 Electronic               0.000              0.000              0.000
 Translational            0.889              2.981             43.537
 Rotational               0.889              2.981             35.730
 Vibrational            199.562             78.451             86.671
 Vibration     1          0.593              1.987              7.489
 Vibration     2          0.593              1.986              6.974
 Vibration     3          0.593              1.985              6.432
 Vibration     4          0.595              1.980              5.078
 Vibration     5          0.596              1.975              4.560
 Vibration     6          0.596              1.974              4.528
 Vibration     7          0.602              1.957              3.673
 Vibration     8          0.603              1.954              3.580
 Vibration     9          0.603              1.951              3.505
 Vibration    10          0.612              1.924              2.950
 Vibration    11          0.618              1.902              2.661
 Vibration    12          0.630              1.864              2.306
 Vibration    13          0.641              1.829              2.064
 Vibration    14          0.653              1.794              1.872
 Vibration    15          0.662              1.765              1.739
 Vibration    16          0.666              1.754              1.694
 Vibration    17          0.674              1.730              1.602
 Vibration    18          0.682              1.703              1.509
 Vibration    19          0.691              1.678              1.430
 Vibration    20          0.696              1.663              1.385
 Vibration    21          0.707              1.633              1.303
 Vibration    22          0.718              1.600              1.223
 Vibration    23          0.733              1.558              1.130
 Vibration    24          0.743              1.531              1.074
 Vibration    25          0.752              1.507              1.027
 Vibration    26          0.766              1.470              0.962
 Vibration    27          0.770              1.458              0.943
 Vibration    28          0.775              1.446              0.923
 Vibration    29          0.805              1.371              0.810
 Vibration    30          0.808              1.364              0.800
 Vibration    31          0.827              1.316              0.737
 Vibration    32          0.849              1.265              0.675
 Vibration    33          0.856              1.248              0.656
 Vibration    34          0.870              1.217              0.622
 Vibration    35          0.892              1.168              0.572
 Vibration    36          0.909              1.131              0.536
 Vibration    37          0.935              1.078              0.489

                           ! Non-Optimized Parameters !
 Normal termination of Gaussian 16 at Fri May 27 10:43:27 2022.
