 Gaussian 16, Revision C.01,
 Gaussian 16:  ES64L-G16RevC.01  3-Jul-2019

 --------------------------------------------------
 #M062X/gen 6D INT(grid=ultrafine) OPT Freq=noraman
 --------------------------------------------------

 ------------
 HA.1.a3.freq
 ------------
 Symbolic Z-matrix:
 Charge =  0 Multiplicity = 1

 SCF Done:  E(RM062X) =  -835.966541557     A.U. after   15 cycles
 SCF Done:  E(RM062X) =  -835.968040251     A.U. after   13 cycles
 SCF Done:  E(RM062X) =  -835.968156680     A.U. after   12 cycles
 SCF Done:  E(RM062X) =  -835.968166239     A.U. after   11 cycles
 SCF Done:  E(RM062X) =  -835.968168905     A.U. after   10 cycles
 SCF Done:  E(RM062X) =  -835.968169758     A.U. after   10 cycles
 SCF Done:  E(RM062X) =  -835.968169919     A.U. after    9 cycles
 Optimization completed.
    -- Stationary point found.
 Normal termination of Gaussian 16 at Fri May 20 14:16:08 2022.

 ------------------------------------------------------------------
 #N Geom=AllCheck Guess=TCheck SCRF=Check GenChk RM062X/ChkBas Freq
 ------------------------------------------------------------------

 Structure from the checkpoint file:  "/jobfs/40735761.gadi-pbs/Gau-4169884.chk"
 ------------
 HA.1.a3.freq
 ------------
 Charge =  0 Multiplicity = 1

                         Standard orientation:
 ---------------------------------------------------------------------
 Center     Atomic      Atomic             Coordinates (Angstroms)
 Number     Number       Type             X           Y           Z
 ---------------------------------------------------------------------
      1          6           0        0.310606    0.000002   -0.089419
      2          6           0        0.985933    1.217536   -0.054569
      3          1           0        0.427168    2.146733   -0.118108
      4          6           0        2.376475    1.210524    0.031050
      5          1           0        2.919963    2.150065    0.051292
      6          6           0        3.068189   -0.000003    0.078022
      7          1           0        4.152249   -0.000005    0.140773
      8          6           0        2.376471   -1.210528    0.031045
      9          1           0        2.919957   -2.150071    0.051282
     10          6           0        0.985930   -1.217536   -0.054575
     11          1           0        0.427161   -2.146731   -0.118117
     12         16           0       -1.475352    0.000004   -0.147589
     13          8           0       -1.892241    1.276879   -0.698303
     14          8           0       -1.892247   -1.276858   -0.698332
     15          7           0       -2.010975   -0.000017    1.430448
     16          1           0       -1.754862    0.846254    1.932484
     17          1           0       -1.754913   -0.846330    1.932438
 ---------------------------------------------------------------------

 SCF Done:  E(RM062X) =  -835.968169919     A.U. after    1 cycles

 The electronic state is 1-A.
 Alpha  occ. eigenvalues --  -90.17108 -19.64789 -19.64788 -14.80674 -10.60370
 Alpha  occ. eigenvalues --  -10.58875 -10.58872 -10.58542 -10.58398 -10.58378
 Alpha  occ. eigenvalues --   -8.48068  -6.40287  -6.40237  -6.40143  -1.25144
 Alpha  occ. eigenvalues --   -1.13808  -1.03051  -0.99476  -0.88778  -0.87536
 Alpha  occ. eigenvalues --   -0.76908  -0.72115  -0.69727  -0.64693  -0.62350
 Alpha  occ. eigenvalues --   -0.60173  -0.57036  -0.55432  -0.54136  -0.52366
 Alpha  occ. eigenvalues --   -0.51984  -0.47435  -0.45799  -0.43476  -0.42195
 Alpha  occ. eigenvalues --   -0.40661  -0.40093  -0.38863  -0.37487  -0.33642
 Alpha  occ. eigenvalues --   -0.33391
 Alpha virt. eigenvalues --   -0.02234  -0.00800  -0.00078   0.01719   0.02581
 Alpha virt. eigenvalues --    0.03687   0.04679   0.05316   0.06401   0.07128
 Alpha virt. eigenvalues --    0.07439   0.07726   0.08363   0.09650   0.10574

 Mulliken charges:
               1
     1  C   -0.750162
     2  C   -0.057397
     3  H    0.255308
     4  C   -0.133675
     5  H    0.220687
     6  C   -0.213211
     7  H    0.218048
     8  C   -0.133676
     9  H    0.220687
    10  C   -0.057410
    11  H    0.255307
    12  S    1.348959
    13  O   -0.555630
    14  O   -0.555634
    15  N   -0.935804
    16  H    0.436802
    17  H    0.436801
 Sum of Mulliken charges =   0.00000

 Dipole moment (field-independent basis, Debye):
    X=              4.8906    Y=             -0.0001    Z=              3.8244  Tot=              6.2083
 Quadrupole moment (field-independent basis, Debye-Ang):
   XX=            -68.6428   YY=            -63.1313   ZZ=            -65.1196
   XY=              0.0002   XZ=             -6.2903   YZ=             -0.0001

  Exact polarizability:     124.078       0.000     102.163      -0.593       0.000      66.780
 Approx polarizability:     141.269       0.000     144.388       2.104       0.000      84.462

                      1                      2                      3
                      A                      A                      A
 Frequencies --     45.9791               116.8786               188.1012
 Red. masses --      4.5881                 4.4548                 5.5275
 Frc consts  --      0.0057                 0.0359                 0.1152
 IR Inten    --      2.0369                 6.8472                 3.8302

                      4                      5                      6
                      A                      A                      A
 Frequencies --    267.6127               273.8591               315.7842
 Red. masses --      1.4341                 3.8765                 8.9436
 Frc consts  --      0.0605                 0.1713                 0.5255
 IR Inten    --     12.5595                 8.9677                 4.0840

                      7                      8                      9
                      A                      A                      A
 Frequencies --    400.7741               413.8720               446.8182
 Red. masses --      3.2695                 2.9005                 5.3597
 Frc consts  --      0.3094                 0.2927                 0.6305
 IR Inten    --      4.8137                 0.0643                 3.5938

                     10                     11                     12
                      A                      A                      A
 Frequencies --    458.8866               537.4900               570.8513
 Red. masses --      3.5027                 4.7015                 5.1623
 Frc consts  --      0.4346                 0.8002                 0.9911
 IR Inten    --     13.1557                54.6913                 8.7488

                     13                     14                     15
                      A                      A                      A
 Frequencies --    623.8649               664.6425               708.4662
 Red. masses --      6.4127                 2.2769                 2.2661
 Frc consts  --      1.4705                 0.5926                 0.6702
 IR Inten    --      0.0092               336.2933                26.8757

                     16                     17                     18
                      A                      A                      A
 Frequencies --    744.3485               775.2199               864.0938
 Red. masses --      4.6792                 1.5060                 3.7696
 Frc consts  --      1.5275                 0.5332                 1.6583
 IR Inten    --    199.7706                53.0264                50.9428

                     19                     20                     21
                      A                      A                      A
 Frequencies --    879.1152               964.9916              1014.1048
 Red. masses --      1.2418                 1.3481                 1.3695
 Frc consts  --      0.5655                 0.7397                 0.8298
 IR Inten    --      0.1251                 0.5027                 0.0325

                     22                     23                     24
                      A                      A                      A
 Frequencies --   1014.6786              1033.9020              1059.8343
 Red. masses --      6.1921                 1.3181                 2.5870
 Frc consts  --      3.7562                 0.8301                 1.7121
 IR Inten    --      1.9698                 0.1188                 2.0307

                     25                     26                     27
                      A                      A                      A
 Frequencies --   1104.4883              1116.8736              1122.0945
 Red. masses --      1.2718                 1.4437                 3.3174
 Frc consts  --      0.9141                 1.0610                 2.4610
 IR Inten    --      0.0889                 7.4152                29.9753

                     28                     29                     30
                      A                      A                      A
 Frequencies --   1183.8992              1188.7717              1207.6734
 Red. masses --      7.4051                 1.1315                 1.1704
 Frc consts  --      6.1152                 0.9421                 1.0057
 IR Inten    --    225.7656                 0.3480                 1.6651

                     31                     32                     33
                      A                      A                      A
 Frequencies --   1337.7109              1352.7809              1394.5451
 Red. masses --      1.7887                 2.8790                11.2577
 Frc consts  --      1.8858                 3.1042                12.8992
 IR Inten    --      0.0043                26.6441               189.6056

                     34                     35                     36
                      A                      A                      A
 Frequencies --   1498.6695              1531.4584              1620.9289
 Red. masses --      2.3087                 2.1997                 1.1105
 Frc consts  --      3.0551                 3.0397                 1.7191
 IR Inten    --     20.6537                 3.7787                53.7747

                     37                     38                     39
                      A                      A                      A
 Frequencies --   1673.1821              1673.6252              3223.8693
 Red. masses --      5.8213                 6.3231                 1.0864
 Frc consts  --      9.6019                10.4352                 6.6526
 IR Inten    --      0.5012                 0.2385                 0.4801

                     40                     41                     42
                      A                      A                      A
 Frequencies --   3233.0461              3239.0196              3245.0503
 Red. masses --      1.0890                 1.0924                 1.0952
 Frc consts  --      6.7066                 6.7522                 6.7951
 IR Inten    --      6.9923                 1.0633                 2.0956

                     43                     44                     45
                      A                      A                      A
 Frequencies --   3249.2886              3540.1530              3658.4415
 Red. masses --      1.0987                 1.0469                 1.0998
 Frc consts  --      6.8344                 7.7306                 8.6731
 IR Inten    --     12.6207                38.1085                42.2492

 - Thermochemistry -
 -------------------
 Temperature   298.150 Kelvin.  Pressure   1.00000 Atm.
 Atom     1 has atomic number  6 and mass  12.00000

 Molecular mass:   157.01975 amu.
 Principal axes and moments of inertia in atomic units:
                           1         2         3
     Eigenvalues --   698.454632168.578112491.11241
           X            0.99993   0.00000  -0.01145
           Y           -0.00000   1.00000  -0.00000
           Z            0.01145   0.00000   0.99993
 This molecule is an asymmetric top.
 Rotational symmetry number  1.
 Warning -- assumption of classical behavior for rotation
           may cause significant error
 Rotational temperatures (Kelvin)      0.12401     0.03994     0.03477
 Rotational constants (GHZ):           2.58391     0.83222     0.72447
 Zero-point vibrational energy     339618.3 (Joules/Mol)
                                   81.17071 (Kcal/Mol)
 Warning -- explicit consideration of  12 degrees of freedom as
           vibrations may cause significant error
 Vibrational temperatures:     66.15   168.16   270.64   385.03   394.02
          (Kelvin)            454.34   576.62   595.47   642.87   660.24
                              773.33   821.33   897.60   956.27  1019.32
                             1070.95  1115.37  1243.24  1264.85  1388.41
                             1459.07  1459.90  1487.55  1524.87  1589.11
                             1606.93  1614.44  1703.37  1710.38  1737.57
                             1924.67  1946.35  2006.44  2156.25  2203.43
                             2332.16  2407.34  2407.97  4638.43  4651.63
                             4660.23  4668.90  4675.00  5093.49  5263.68

 Zero-point correction=                           0.129354 (Hartree/Particle)
 Thermal correction to Energy=                    0.138156
 Thermal correction to Enthalpy=                  0.139101
 Thermal correction to Gibbs Free Energy=         0.094962
 Sum of electronic and zero-point Energies=           -835.838816
 Sum of electronic and thermal Energies=              -835.830014
 Sum of electronic and thermal Enthalpies=            -835.829069
 Sum of electronic and thermal Free Energies=         -835.873208

                     E (Thermal)             CV                S
                      KCal/Mol        Cal/Mol-Kelvin    Cal/Mol-Kelvin
 Total                   86.694             33.786             92.897
 Electronic               0.000              0.000              0.000
 Translational            0.889              2.981             41.063
 Rotational               0.889              2.981             29.713
 Vibrational             84.917             27.824             22.121
 Vibration     1          0.595              1.979              4.983
 Vibration     2          0.608              1.935              3.151
 Vibration     3          0.633              1.856              2.246
 Vibration     4          0.673              1.733              1.612
 Vibration     5          0.676              1.722              1.572
 Vibration     6          0.703              1.643              1.332
 Vibration     7          0.767              1.468              0.960
 Vibration     8          0.777              1.440              0.913
 Vibration     9          0.806              1.368              0.805
 Vibration    10          0.817              1.341              0.769
 Vibration    11          0.893              1.167              0.571
 Vibration    12          0.927              1.094              0.503

 Optimization completed.
    -- Stationary point found.
 Normal termination of Gaussian 16 at Fri May 20 14:18:47 2022.
