 Gaussian 16, Revision C.01,
 Gaussian 16:  ES64L-G16RevC.01  3-Jul-2019

 --------------------------------------------------
 #M062X/gen 6D INT(grid=ultrafine) OPT Freq=noraman
 --------------------------------------------------

 -------------
 HA.16.a3.freq
 -------------
 Symbolic Z-matrix:
 Charge =  0 Multiplicity = 1

 SCF Done:  E(RM062X) =  -941.937687635     A.U. after   13 cycles
 SCF Done:  E(RM062X) =  -941.938865678     A.U. after   11 cycles
 SCF Done:  E(RM062X) =  -941.938958374     A.U. after   10 cycles
 SCF Done:  E(RM062X) =  -941.938966681     A.U. after    9 cycles
 SCF Done:  E(RM062X) =  -941.938968648     A.U. after    8 cycles
 SCF Done:  E(RM062X) =  -941.938969298     A.U. after    8 cycles
 SCF Done:  E(RM062X) =  -941.938969551     A.U. after    8 cycles
 Optimization completed.
    -- Stationary point found.
 Normal termination of Gaussian 16 at Fri May 20 19:50:36 2022.

 ------------------------------------------------------------------
 #N Geom=AllCheck Guess=TCheck SCRF=Check GenChk RM062X/ChkBas Freq
 ------------------------------------------------------------------

 Structure from the checkpoint file:  "/jobfs/40766125.gadi-pbs/Gau-2691970.chk"
 -------------
 HA.16.a3.freq
 -------------
 Charge =  0 Multiplicity = 1

                         Standard orientation:
 ---------------------------------------------------------------------
 Center     Atomic      Atomic             Coordinates (Angstroms)
 Number     Number       Type             X           Y           Z
 ---------------------------------------------------------------------
      1          6           0        0.992709    0.022442    0.000000
      2         16           0       -0.849436   -0.191680   -0.000002
      3          8           0       -1.166786   -0.782466   -1.277402
      4          8           0       -1.166786   -0.782488    1.277389
      5          7           0       -1.420159    1.343796    0.000012
      6          1           0       -1.275868    1.863586   -0.860483
      7          1           0       -1.275865    1.863573    0.860513
      8          9           0        1.589603   -1.157500   -0.000020
      9          9           0        1.360540    0.707517    1.082020
     10          9           0        1.360540    0.707554   -1.081997
 ---------------------------------------------------------------------

 SCF Done:  E(RM062X) =  -941.938969551     A.U. after    1 cycles

 The electronic state is 1-A.
 Alpha  occ. eigenvalues --  -90.20597 -25.34631 -25.34630 -25.34416 -19.68396
 Alpha  occ. eigenvalues --  -19.68395 -14.84048 -10.85593  -8.51600  -6.43807
 Alpha  occ. eigenvalues --   -6.43749  -6.43699  -1.51517  -1.42225  -1.42148
 Alpha  occ. eigenvalues --   -1.28887  -1.17586  -1.06776  -0.88361  -0.79247
 Alpha  occ. eigenvalues --   -0.73757  -0.73613  -0.72259  -0.66288  -0.63022
 Alpha  occ. eigenvalues --   -0.61067  -0.60925  -0.58104  -0.57623  -0.57416
 Alpha  occ. eigenvalues --   -0.55912  -0.55268  -0.45819  -0.44249  -0.42431
 Alpha  occ. eigenvalues --   -0.42285  -0.40656
 Alpha virt. eigenvalues --   -0.00781   0.02718   0.03689   0.03776   0.06704
 Alpha virt. eigenvalues --    0.06956   0.07214   0.07834   0.08356   0.08826
 Alpha virt. eigenvalues --    0.10508   0.12630   0.12983   0.13549   0.15023

 Mulliken charges:
               1
     1  C    0.763558
     2  S    1.173731
     3  O   -0.540937
     4  O   -0.540937
     5  N   -0.963545
     6  H    0.454581
     7  H    0.454581
     8  F   -0.262155
     9  F   -0.269438
    10  F   -0.269439
 Sum of Mulliken charges =  -0.00000

 Dipole moment (field-independent basis, Debye):
    X=              0.6122    Y=              4.1440    Z=              0.0000  Tot=              4.1890
 Quadrupole moment (field-independent basis, Debye-Ang):
   XX=            -54.3209   YY=            -46.6620   ZZ=            -54.5942
   XY=             -5.2581   XZ=             -0.0000   YZ=              0.0001

  Exact polarizability:      47.603      -1.387      46.933      -0.000      -0.000      47.492
 Approx polarizability:      51.385      -0.658      56.181      -0.000      -0.000      63.535

                      1                      2                      3
                      A                      A                      A
 Frequencies --     57.6941               178.8229               191.0350
 Red. masses --     10.7755                 5.8396                10.2009
 Frc consts  --      0.0211                 0.1100                 0.2193
 IR Inten    --      2.1112                19.5523                 7.3313

                      4                      5                      6
                      A                      A                      A
 Frequencies --    299.6766               305.0061               328.4379
 Red. masses --      9.9615                 2.3978                10.1297
 Frc consts  --      0.5271                 0.1314                 0.6438
 IR Inten    --      1.6451                 5.6408                 9.0119

                      7                      8                      9
                      A                      A                      A
 Frequencies --    383.3317               463.5833               477.7003
 Red. masses --      3.2137                 1.9989                 3.3830
 Frc consts  --      0.2782                 0.2531                 0.4548
 IR Inten    --      0.4057                20.6700                61.9972

                     10                     11                     12
                      A                      A                      A
 Frequencies --    500.0102               557.0472               564.0538
 Red. masses --      2.1875                15.3094                14.8849
 Frc consts  --      0.3222                 2.7989                 2.7902
 IR Inten    --    143.3998                 0.0023                 4.4130

                     13                     14                     15
                      A                      A                      A
 Frequencies --    615.2959               782.5913               896.0920
 Red. masses --     12.2929                15.8098                 5.5855
 Frc consts  --      2.7420                 5.7049                 2.6425
 IR Inten    --    258.7223                 1.8272                91.6262

                     16                     17                     18
                      A                      A                      A
 Frequencies --   1085.7952              1168.6218              1257.2835
 Red. masses --      1.2662                13.9179                14.7552
 Frc consts  --      0.8795                11.1988                13.7424
 IR Inten    --      0.0085               259.0769                39.2815

                     19                     20                     21
                      A                      A                      A
 Frequencies --   1271.4725              1310.4197              1439.1565
 Red. masses --     13.2122                13.1959                15.2909
 Frc consts  --     12.5846                13.3509                18.6595
 IR Inten    --    183.5101               275.6006               306.4002

                     22                     23                     24
                      A                      A                      A
 Frequencies --   1609.2279              3558.9999              3685.4606
 Red. masses --      1.1220                 1.0453                 1.1038
 Frc consts  --      1.7119                 7.8012                 8.8330
 IR Inten    --     67.8600                72.8309                91.1799

 - Thermochemistry -
 -------------------
 Temperature   298.150 Kelvin.  Pressure   1.00000 Atm.
 Atom     1 has atomic number  6 and mass  12.00000

 Molecular mass:   148.97583 amu.
 Principal axes and moments of inertia in atomic units:
                           1         2         3
     Eigenvalues --   697.929491162.180631165.43703
           X            0.99929   0.00000  -0.03777
           Y            0.03777  -0.00005   0.99929
           Z            0.00000   1.00000   0.00005
 This molecule is an asymmetric top.
 Rotational symmetry number  1.
 Warning -- assumption of classical behavior for rotation
           may cause significant error
 Rotational temperatures (Kelvin)      0.12410     0.07453     0.07432
 Rotational constants (GHZ):           2.58585     1.55289     1.54855
 Zero-point vibrational energy     137491.7 (Joules/Mol)
                                   32.86130 (Kcal/Mol)
 Warning -- explicit consideration of  13 degrees of freedom as
           vibrations may cause significant error
 Vibrational temperatures:     83.01   257.29   274.86   431.17   438.84
          (Kelvin)            472.55   551.53   666.99   687.30   719.40
                              801.47   811.55   885.27  1125.97  1289.28
                             1562.22  1681.39  1808.95  1829.37  1885.40
                             2070.63  2315.32  5120.61  5302.56

 Zero-point correction=                           0.052368 (Hartree/Particle)
 Thermal correction to Energy=                    0.060200
 Thermal correction to Enthalpy=                  0.061144
 Thermal correction to Gibbs Free Energy=         0.019510
 Sum of electronic and zero-point Energies=           -941.886602
 Sum of electronic and thermal Energies=              -941.878769
 Sum of electronic and thermal Enthalpies=            -941.877825
 Sum of electronic and thermal Free Energies=         -941.919460

                     E (Thermal)             CV                S
                      KCal/Mol        Cal/Mol-Kelvin    Cal/Mol-Kelvin
 Total                   37.776             27.556             87.627
 Electronic               0.000              0.000              0.000
 Translational            0.889              2.981             40.906
 Rotational               0.889              2.981             28.338
 Vibrational             35.999             21.594             18.384
 Vibration     1          0.596              1.974              4.535
 Vibration     2          0.629              1.868              2.341
 Vibration     3          0.634              1.852              2.218
 Vibration     4          0.692              1.674              1.419
 Vibration     5          0.696              1.664              1.389
 Vibration     6          0.712              1.619              1.268
 Vibration     7          0.753              1.506              1.026
 Vibration     8          0.821              1.331              0.756
 Vibration     9          0.834              1.300              0.716
 Vibration    10          0.855              1.250              0.658
 Vibration    11          0.913              1.124              0.530
 Vibration    12          0.920              1.109              0.516
 Vibration    13          0.975              1.000              0.424

                           ! Non-Optimized Parameters !
 Normal termination of Gaussian 16 at Fri May 20 19:51:29 2022.
