 Gaussian 16, Revision C.01,
 Gaussian 16:  ES64L-G16RevC.01  3-Jul-2019

 --------------------------------------------------
 #M062X/gen 6D INT(grid=ultrafine) OPT Freq=noraman
 --------------------------------------------------

 ---------------
 HA.15.a3d3.freq
 ---------------
 Symbolic Z-matrix:
 Charge =  0 Multiplicity = 1

 SCF Done:  E(RM062X) =  -1043.90192271     A.U. after   16 cycles
 SCF Done:  E(RM062X) =  -1043.90423026     A.U. after   15 cycles
 SCF Done:  E(RM062X) =  -1043.90445081     A.U. after   15 cycles
 SCF Done:  E(RM062X) =  -1043.90447063     A.U. after   14 cycles
 SCF Done:  E(RM062X) =  -1043.90457062     A.U. after   14 cycles
 SCF Done:  E(RM062X) =  -1043.90462513     A.U. after   14 cycles
 SCF Done:  E(RM062X) =  -1043.90464781     A.U. after   14 cycles
 SCF Done:  E(RM062X) =  -1043.90465883     A.U. after   12 cycles
 SCF Done:  E(RM062X) =  -1043.90468977     A.U. after   14 cycles
 SCF Done:  E(RM062X) =  -1043.90469935     A.U. after   13 cycles
 SCF Done:  E(RM062X) =  -1043.90470532     A.U. after   12 cycles
 SCF Done:  E(RM062X) =  -1043.90470668     A.U. after   12 cycles
 SCF Done:  E(RM062X) =  -1043.90470700     A.U. after   11 cycles
 SCF Done:  E(RM062X) =  -1043.90470703     A.U. after   10 cycles
 SCF Done:  E(RM062X) =  -1043.90470704     A.U. after    9 cycles
 Optimization completed.
    -- Stationary point found.
 Normal termination of Gaussian 16 at Sun May 22 15:58:42 2022.

 ------------------------------------------------------------------
 #N Geom=AllCheck Guess=TCheck SCRF=Check GenChk RM062X/ChkBas Freq
 ------------------------------------------------------------------

 Structure from the checkpoint file:  "/jobfs/40919555.gadi-pbs/Gau-1135501.chk"
 ---------------
 HA.15.a3d3.freq
 ---------------
 Charge =  0 Multiplicity = 1

                         Standard orientation:
 ---------------------------------------------------------------------
 Center     Atomic      Atomic             Coordinates (Angstroms)
 Number     Number       Type             X           Y           Z
 ---------------------------------------------------------------------
      1          6           0        1.187184   -0.004119   -0.093179
      2          6           0        0.450165   -1.158411    0.152928
      3          1           0        0.959020   -2.110494    0.270465
      4          6           0       -0.937710   -1.066307    0.223708
      5          1           0       -1.518096   -1.958720    0.441194
      6          6           0       -1.570445    0.167840    0.052369
      7          6           0       -3.064793    0.334922    0.129670
      8          6           0       -0.810900    1.317076   -0.182380
      9          1           0       -1.325848    2.265422   -0.299680
     10          6           0        0.574271    1.235192   -0.268389
     11          1           0        1.177833    2.111293   -0.487241
     12         16           0        2.971515   -0.110076   -0.151747
     13          8           0        3.310217   -1.495192   -0.423554
     14          8           0        3.443466    0.998135   -0.960945
     15          7           0        3.524865    0.193111    1.388475
     16          1           0        3.233980   -0.512016    2.060643
     17          1           0        3.328426    1.140594    1.700736
     18          7           0       -3.811932   -0.757894   -0.183420
     19          8           0       -3.569076    1.396112    0.464855
     20          6           0       -5.261105   -0.657855   -0.195873
     21          1           0       -5.680817   -1.651838   -0.355022
     22          1           0       -5.608162    0.019884   -0.982891
     23          1           0       -5.603466   -0.269069    0.764863
     24          1           0       -3.374491   -1.522818   -0.676486
 ---------------------------------------------------------------------

 SCF Done:  E(RM062X) =  -1043.90470704     A.U. after    1 cycles

 The electronic state is 1-A.
 Alpha  occ. eigenvalues --  -90.17623 -19.65283 -19.65247 -19.63112 -14.81117
 Alpha  occ. eigenvalues --  -14.80977 -10.67404 -10.61119 -10.59785 -10.59661
 Alpha  occ. eigenvalues --  -10.59573 -10.59412 -10.59339 -10.58769  -8.48574
 Alpha  occ. eigenvalues --   -6.40792  -6.40743  -6.40653  -1.25647  -1.18088
 Alpha  occ. eigenvalues --   -1.14305  -1.05110  -1.03519  -1.00366  -0.90546
 Alpha  occ. eigenvalues --   -0.88326  -0.82468  -0.77555  -0.73087  -0.71414
 Alpha  occ. eigenvalues --   -0.68438  -0.65628  -0.63360  -0.62813  -0.58771
 Alpha  occ. eigenvalues --   -0.57412  -0.55588  -0.55019  -0.53793  -0.52793
 Alpha  occ. eigenvalues --   -0.52529  -0.52455  -0.49061  -0.47786  -0.47336
 Alpha  occ. eigenvalues --   -0.46109  -0.43965  -0.42693  -0.41143  -0.40423
 Alpha  occ. eigenvalues --   -0.39341  -0.38090  -0.35489  -0.34491  -0.33616
 Alpha  occ. eigenvalues --   -0.33454
 Alpha virt. eigenvalues --   -0.04343  -0.01533  -0.00573   0.00415   0.02461
 Alpha virt. eigenvalues --    0.02874   0.03518   0.03850   0.04547   0.05244
 Alpha virt. eigenvalues --    0.05504   0.06256   0.06573   0.07352   0.07595

 Mulliken charges:
               1
     1  C   -1.407294
     2  C   -0.045652
     3  H    0.258881
     4  C   -0.352613
     5  H    0.218907
     6  C    0.417469
     7  C    0.420303
     8  C   -0.225804
     9  H    0.258397
    10  C    0.114116
    11  H    0.258589
    12  S    1.595038
    13  O   -0.527545
    14  O   -0.515015
    15  N   -0.933886
    16  H    0.442330
    17  H    0.443418
    18  N   -0.555460
    19  O   -0.510222
    20  C   -0.455933
    21  H    0.209314
    22  H    0.235125
    23  H    0.246540
    24  H    0.410997
 Sum of Mulliken charges =  -0.00000

 Dipole moment (field-independent basis, Debye):
    X=             -4.0327    Y=             -2.2148    Z=              2.2950  Tot=              5.1415
 Quadrupole moment (field-independent basis, Debye-Ang):
   XX=           -103.2089   YY=            -88.0380   ZZ=            -87.7793
   XY=             16.9533   XZ=             17.7242   YZ=             -0.5015

  Exact polarizability:     185.960       2.169     130.225       1.913      -1.960      89.176
 Approx polarizability:     187.296      -0.712     188.622      -2.284      -4.657     115.687

                      1                      2                      3
                      A                      A                      A
 Frequencies --     36.0778                53.2471                70.2185
 Red. masses --      5.1723                 4.8253                 4.0982
 Frc consts  --      0.0040                 0.0081                 0.0119
 IR Inten    --      7.2913                 4.2972                 6.7526

                      4                      5                      6
                      A                      A                      A
 Frequencies --    100.8748               107.2404               137.8622
 Red. masses --      1.5781                 2.1784                 4.0511
 Frc consts  --      0.0095                 0.0148                 0.0454
 IR Inten    --      1.8892                 2.3101                 2.4434

                      7                      8                      9
                      A                      A                      A
 Frequencies --    181.5166               222.9236               234.1816
 Red. masses --      4.9492                 4.3994                10.0121
 Frc consts  --      0.0961                 0.1288                 0.3235
 IR Inten    --      8.1923                 7.1028                 1.1610

                     10                     11                     12
                      A                      A                      A
 Frequencies --    268.5196               293.8558               325.8644
 Red. masses --      1.6754                 3.0262                 4.8382
 Frc consts  --      0.0712                 0.1540                 0.3027
 IR Inten    --      4.1345                24.9960                20.6836

                     13                     14                     15
                      A                      A                      A
 Frequencies --    399.4919               417.7686               428.9665
 Red. masses --      3.2968                 2.9466                 3.8056
 Frc consts  --      0.3100                 0.3030                 0.4126
 IR Inten    --      1.0281                 0.3297                16.9568

                     16                     17                     18
                      A                      A                      A
 Frequencies --    437.1443               459.5464               476.9791
 Red. masses --      3.7561                 3.1912                 1.6144
 Frc consts  --      0.4229                 0.3971                 0.2164
 IR Inten    --     14.6841                32.7721                38.0324

                     19                     20                     21
                      A                      A                      A
 Frequencies --    504.6586               554.5742               585.2664
 Red. masses --      6.3315                 3.9301                 3.8078
 Frc consts  --      0.9501                 0.7122                 0.7685
 IR Inten    --     27.0095                42.7672                 9.1653

                     22                     23                     24
                      A                      A                      A
 Frequencies --    639.3251               673.6967               714.3404
 Red. masses --      6.8628                 2.3879                 4.3473
 Frc consts  --      1.6527                 0.6385                 1.3070
 IR Inten    --      0.3292               436.2409                10.9905

                     25                     26                     27
                      A                      A                      A
 Frequencies --    751.2755               781.5496               853.7199
 Red. masses --      5.1339                 3.5707                 3.5364
 Frc consts  --      1.7072                 1.2851                 1.5186
 IR Inten    --    185.2786                21.5784                14.6715

                     28                     29                     30
                      A                      A                      A
 Frequencies --    867.7911               877.6788               889.2036
 Red. masses --      2.9075                 1.5100                 1.6289
 Frc consts  --      1.2900                 0.6853                 0.7589
 IR Inten    --     62.0803                 1.9505                 7.6693

                     31                     32                     33
                      A                      A                      A
 Frequencies --   1004.2403              1021.5405              1029.4893
 Red. masses --      1.3479                 1.3751                 3.8820
 Frc consts  --      0.8009                 0.8455                 2.4241
 IR Inten    --      0.2074                 1.4186                 6.5550

                     34                     35                     36
                      A                      A                      A
 Frequencies --   1053.9962              1106.4197              1123.4421
 Red. masses --      3.0497                 1.2413                 3.3580
 Frc consts  --      1.9961                 0.8953                 2.4971
 IR Inten    --      4.0385                 1.2266                28.2546

                     37                     38                     39
                      A                      A                      A
 Frequencies --   1139.5511              1159.0599              1184.4459
 Red. masses --      1.3213                 1.2881                 6.2675
 Frc consts  --      1.0109                 1.0195                 5.1805
 IR Inten    --      4.9522                 6.8466               228.3652

                     40                     41                     42
                      A                      A                      A
 Frequencies --   1192.8872              1198.1020              1213.5637
 Red. masses --      2.1239                 2.0487                 1.3448
 Frc consts  --      1.7807                 1.7327                 1.1669
 IR Inten    --     20.9112                 2.8020                 8.5044

                     43                     44                     45
                      A                      A                      A
 Frequencies --   1317.3233              1330.7001              1348.3902
 Red. masses --      2.1455                 1.3125                 7.3852
 Frc consts  --      2.1936                 1.3694                 7.9112
 IR Inten    --    100.0638                14.8304                23.2884

                     46                     47                     48
                      A                      A                      A
 Frequencies --   1399.7633              1446.6647              1473.3997
 Red. masses --     11.9016                 3.1395                 1.1853
 Frc consts  --     13.7393                 3.8712                 1.5160
 IR Inten    --    185.8873                16.3045                12.6866

                     49                     50                     51
                      A                      A                      A
 Frequencies --   1504.1618              1527.3810              1543.0647
 Red. masses --      1.0604                 1.2194                 1.9074
 Frc consts  --      1.4136                 1.6761                 2.6759
 IR Inten    --     24.6947                33.7547                20.4647

                     52                     53                     54
                      A                      A                      A
 Frequencies --   1580.2631              1620.5218              1659.6832
 Red. masses --      2.1381                 1.1107                 7.5894
 Frc consts  --      3.1458                 1.7185                12.3170
 IR Inten    --    317.5073                52.5409                 9.1560

                     55                     56                     57
                      A                      A                      A
 Frequencies --   1685.4603              1801.6182              3090.1235
 Red. masses --      6.1110                10.5071                 1.0379
 Frc consts  --     10.2282                20.0937                 5.8392
 IR Inten    --      5.2313               278.8901                40.3469

                     58                     59                     60
                      A                      A                      A
 Frequencies --   3164.0868              3198.1808              3225.0083
 Red. masses --      1.0987                 1.1057                 1.0894
 Frc consts  --      6.4808                 6.6634                 6.6756
 IR Inten    --     15.0952                10.2187                 4.1566

                     61                     62                     63
                      A                      A                      A
 Frequencies --   3238.4326              3245.5134              3252.3031
 Red. masses --      1.0896                 1.0943                 1.0951
 Frc consts  --      6.7328                 6.7911                 6.8248
 IR Inten    --      1.4002                 2.0097                 0.1318

                     64                     65                     66
                      A                      A                      A
 Frequencies --   3542.2991              3660.9874              3670.9010
 Red. masses --      1.0469                 1.1000                 1.0785
 Frc consts  --      7.7399                 8.6868                 8.5629
 IR Inten    --     41.9600                43.8314                33.8944

 - Thermochemistry -
 -------------------
 Temperature   298.150 Kelvin.  Pressure   1.00000 Atm.
 Atom     1 has atomic number  6 and mass  12.00000

 Molecular mass:   214.04121 amu.
 Principal axes and moments of inertia in atomic units:
                           1         2         3
     Eigenvalues --   907.415376933.343077397.94249
           X            0.99990   0.01099   0.00925
           Y           -0.01094   0.99993  -0.00549
           Z           -0.00931   0.00539   0.99994
 This molecule is an asymmetric top.
 Rotational symmetry number  1.
 Warning -- assumption of classical behavior for rotation
           may cause significant error
 Rotational temperatures (Kelvin)      0.09545     0.01249     0.01171
 Rotational constants (GHZ):           1.98888     0.26030     0.24395
 Zero-point vibrational energy     486272.0 (Joules/Mol)
                                  116.22180 (Kcal/Mol)
 Warning -- explicit consideration of  21 degrees of freedom as
           vibrations may cause significant error
 Vibrational temperatures:     51.91    76.61   101.03   145.14   154.30
          (Kelvin)            198.35   261.16   320.74   336.94   386.34
                              422.79   468.85   574.78   601.08   617.19
                              628.95   661.18   686.27   726.09   797.91
                              842.07   919.85   969.30  1027.78  1080.92
                             1124.48  1228.31  1248.56  1262.78  1279.37
                             1444.88  1469.77  1481.21  1516.47  1591.89
                             1616.38  1639.56  1667.63  1704.15  1716.30
                             1723.80  1746.05  1895.33  1914.58  1940.03
                             2013.95  2081.43  2119.89  2164.15  2197.56
                             2220.13  2273.65  2331.57  2387.91  2425.00
                             2592.13  4446.00  4552.42  4601.47  4640.07
                             4659.38  4669.57  4679.34  5096.58  5267.34
                             5281.61

 Zero-point correction=                           0.185211 (Hartree/Particle)
 Thermal correction to Energy=                    0.198935
 Thermal correction to Enthalpy=                  0.199879
 Thermal correction to Gibbs Free Energy=         0.143699
 Sum of electronic and zero-point Energies=          -1043.719496
 Sum of electronic and thermal Energies=             -1043.705772
 Sum of electronic and thermal Enthalpies=           -1043.704828
 Sum of electronic and thermal Free Energies=        -1043.761008

                     E (Thermal)             CV                S
                      KCal/Mol        Cal/Mol-Kelvin    Cal/Mol-Kelvin
 Total                  124.833             50.508            118.241
 Electronic               0.000              0.000              0.000
 Translational            0.889              2.981             41.986
 Rotational               0.889              2.981             32.209
 Vibrational            123.056             44.546             44.046
 Vibration     1          0.594              1.982              5.464
 Vibration     2          0.596              1.976              4.693
 Vibration     3          0.598              1.968              4.147
 Vibration     4          0.604              1.948              3.437
 Vibration     5          0.606              1.943              3.318
 Vibration     6          0.614              1.916              2.833
 Vibration     7          0.630              1.865              2.313
 Vibration     8          0.649              1.806              1.935
 Vibration     9          0.654              1.789              1.847
 Vibration    10          0.673              1.731              1.606
 Vibration    11          0.689              1.685              1.452
 Vibration    12          0.710              1.624              1.281
 Vibration    13          0.766              1.471              0.965
 Vibration    14          0.781              1.432              0.900
 Vibration    15          0.790              1.407              0.862
 Vibration    16          0.797              1.389              0.836
 Vibration    17          0.817              1.340              0.767
 Vibration    18          0.834              1.301              0.718
 Vibration    19          0.860              1.240              0.647
 Vibration    20          0.910              1.130              0.535
 Vibration    21          0.942              1.063              0.476

 Optimization completed.
    -- Stationary point found.
 Normal termination of Gaussian 16 at Sun May 22 16:04:02 2022.
