 Gaussian 16, Revision C.01,
 Gaussian 16:  ES64L-G16RevC.01  3-Jul-2019

 --------------------------------------------------
 #M062X/gen 6D INT(grid=ultrafine) OPT Freq=noraman
 --------------------------------------------------

 ---------------
 HA.13.a2d3.freq
 ---------------
 Symbolic Z-matrix:
 Charge =  0 Multiplicity = 1

 SCF Done:  E(RM062X) =  -1063.76598082     A.U. after   16 cycles
 SCF Done:  E(RM062X) =  -1063.76771744     A.U. after   14 cycles
 SCF Done:  E(RM062X) =  -1063.76787828     A.U. after   13 cycles
 SCF Done:  E(RM062X) =  -1063.76779539     A.U. after   13 cycles
 SCF Done:  E(RM062X) =  -1063.76788509     A.U. after   13 cycles
 SCF Done:  E(RM062X) =  -1063.76791588     A.U. after   12 cycles
 SCF Done:  E(RM062X) =  -1063.76791821     A.U. after   12 cycles
 SCF Done:  E(RM062X) =  -1063.76791858     A.U. after   11 cycles
 Optimization completed.
    -- Stationary point found.
 Normal termination of Gaussian 16 at Sun May 22 15:38:44 2022.

 ------------------------------------------------------------------
 #N Geom=AllCheck Guess=TCheck SCRF=Check GenChk RM062X/ChkBas Freq
 ------------------------------------------------------------------

 Structure from the checkpoint file:  "/jobfs/40918522.gadi-pbs/Gau-3155057.chk"
 ---------------
 HA.13.a2d3.freq
 ---------------
 Charge =  0 Multiplicity = 1

                         Standard orientation:
 ---------------------------------------------------------------------
 Center     Atomic      Atomic             Coordinates (Angstroms)
 Number     Number       Type             X           Y           Z
 ---------------------------------------------------------------------
      1          6           0        1.174485    0.023138   -0.111988
      2          6           0        0.423466   -1.149409   -0.103264
      3          1           0        0.923318   -2.111996   -0.155125
      4          6           0       -0.964812   -1.058322   -0.059421
      5          1           0       -1.574847   -1.954863   -0.059596
      6          6           0       -1.576684    0.197164   -0.025181
      7          6           0       -3.063862    0.348014    0.021679
      8          6           0       -0.809254    1.364220   -0.045053
      9          1           0       -1.314685    2.324709   -0.033124
     10          6           0        0.578069    1.282243   -0.090568
     11          1           0        1.195091    2.174790   -0.133360
     12         16           0        2.960620   -0.091520   -0.121785
     13          8           0        3.304893   -1.397167   -0.653354
     14          8           0        3.469691    1.151445   -0.670549
     15          7           0        3.448082   -0.111669    1.469206
     16          1           0        3.127562   -0.934512    1.972940
     17          1           0        3.244026    0.756130    1.957993
     18          8           0       -3.700779   -0.830939    0.019890
     19          8           0       -3.633672    1.413284    0.058321
     20          6           0       -5.128189   -0.752146    0.059410
     21          1           0       -5.478183   -1.782786    0.049893
     22          1           0       -5.498157   -0.207837   -0.811888
     23          1           0       -5.450988   -0.240016    0.968242
 ---------------------------------------------------------------------

 SCF Done:  E(RM062X) =  -1063.76791858     A.U. after    1 cycles

 The electronic state is 1-A.
 Alpha  occ. eigenvalues --  -90.17696 -19.71324 -19.65719 -19.65345 -19.65338
 Alpha  occ. eigenvalues --  -14.81209 -10.70688 -10.61737 -10.61330 -10.60021
 Alpha  occ. eigenvalues --  -10.59549 -10.59502 -10.59341 -10.59115  -8.48649
 Alpha  occ. eigenvalues --   -6.40867  -6.40816  -6.40728  -1.25957  -1.25730
 Alpha  occ. eigenvalues --   -1.16305  -1.14384  -1.03615  -1.00614  -0.91263
 Alpha  occ. eigenvalues --   -0.88412  -0.84621  -0.78132  -0.73104  -0.71733
 Alpha  occ. eigenvalues --   -0.67316  -0.65504  -0.63122  -0.62881  -0.58884
 Alpha  occ. eigenvalues --   -0.58785  -0.58571  -0.55624  -0.54968  -0.53114
 Alpha  occ. eigenvalues --   -0.52814  -0.52427  -0.50070  -0.48155  -0.47066
 Alpha  occ. eigenvalues --   -0.45340  -0.43816  -0.42766  -0.41210  -0.40538
 Alpha  occ. eigenvalues --   -0.39517  -0.39417  -0.38256  -0.37559  -0.34376
 Alpha  occ. eigenvalues --   -0.34131
 Alpha virt. eigenvalues --   -0.05204  -0.01348  -0.00388   0.01181   0.02576
 Alpha virt. eigenvalues --    0.02808   0.03651   0.04244   0.04494   0.05042
 Alpha virt. eigenvalues --    0.05368   0.06142   0.06514   0.07534   0.07730

 Mulliken charges:
               1
     1  C   -0.742263
     2  C   -0.199151
     3  H    0.260352
     4  C   -0.399267
     5  H    0.252817
     6  C    0.071183
     7  C    0.815143
     8  C   -0.368124
     9  H    0.259462
    10  C   -0.174812
    11  H    0.261043
    12  S    1.564267
    13  O   -0.530940
    14  O   -0.529548
    15  N   -0.934316
    16  H    0.439840
    17  H    0.440843
    18  O   -0.346652
    19  O   -0.478332
    20  C   -0.341407
    21  H    0.219990
    22  H    0.230594
    23  H    0.229279
 Sum of Mulliken charges =  -0.00000

 Dipole moment (field-independent basis, Debye):
    X=             -4.3661    Y=             -1.4532    Z=              3.6567  Tot=              5.8775
 Quadrupole moment (field-independent basis, Debye-Ang):
   XX=            -99.3474   YY=            -88.7921   ZZ=            -85.6603
   XY=             10.0465   XZ=             11.9759   YZ=             -0.4925

  Exact polarizability:     179.741      -0.210     126.717       1.772       0.160      83.957
 Approx polarizability:     182.789      -2.833     183.291      -0.766       0.600     107.573

                      1                      2                      3
                      A                      A                      A
 Frequencies --     36.6651                55.0299                68.6220
 Red. masses --      6.0595                 4.7813                 5.1344
 Frc consts  --      0.0048                 0.0085                 0.0142
 IR Inten    --      2.7424                 2.0977                 2.8093

                      4                      5                      6
                      A                      A                      A
 Frequencies --    113.3279               131.1225               171.1856
 Red. masses --      5.9126                 3.1631                 1.2034
 Frc consts  --      0.0447                 0.0320                 0.0208
 IR Inten    --      1.1091                 8.1422                 0.7598

                      7                      8                      9
                      A                      A                      A
 Frequencies --    198.8431               205.2433               237.6245
 Red. masses --      5.1697                 4.3211                10.0169
 Frc consts  --      0.1204                 0.1072                 0.3332
 IR Inten    --      6.0180                 6.0691                 1.2296

                     10                     11                     12
                      A                      A                      A
 Frequencies --    282.9182               331.5660               335.9586
 Red. masses --      1.6146                 5.3841                 3.9627
 Frc consts  --      0.0761                 0.3487                 0.2635
 IR Inten    --      6.1750                 6.5193                23.9719

                     13                     14                     15
                      A                      A                      A
 Frequencies --    405.2263               419.2509               439.7587
 Red. masses --      3.4143                 2.9112                 4.9568
 Frc consts  --      0.3303                 0.3015                 0.5648
 IR Inten    --      3.7522                 0.1185                 5.8217

                     16                     17                     18
                      A                      A                      A
 Frequencies --    459.6083               460.1307               504.5596
 Red. masses --      5.4463                 3.5543                 6.1110
 Frc consts  --      0.6778                 0.4434                 0.9166
 IR Inten    --      3.4986                17.8916                14.7491

                     19                     20                     21
                      A                      A                      A
 Frequencies --    540.7278               586.8995               638.6490
 Red. masses --      4.5450                 3.8610                 7.0571
 Frc consts  --      0.7830                 0.7836                 1.6959
 IR Inten    --     45.8395                 9.1846                 0.4873

                     22                     23                     24
                      A                      A                      A
 Frequencies --    674.3803               708.6104               755.1494
 Red. masses --      2.3759                 4.2749                 5.6260
 Frc consts  --      0.6366                 1.2647                 1.8902
 IR Inten    --    449.9530                18.9217               166.7132

                     25                     26                     27
                      A                      A                      A
 Frequencies --    788.2605               854.3718               869.9322
 Red. masses --      3.4462                 4.4906                 4.2798
 Frc consts  --      1.2616                 1.9313                 1.9083
 IR Inten    --     37.9064                18.0975                53.2745

                     28                     29                     30
                      A                      A                      A
 Frequencies --    882.4947               894.3288              1015.0622
 Red. masses --      1.2552                 1.8064                 1.3439
 Frc consts  --      0.5759                 0.8512                 0.8159
 IR Inten    --      0.2686                 8.9199                 0.4834

                     31                     32                     33
                      A                      A                      A
 Frequencies --   1025.4902              1027.3218              1048.1142
 Red. masses --      1.4996                 4.0435                 3.6657
 Frc consts  --      0.9291                 2.5143                 2.3726
 IR Inten    --      1.1465                 3.9761                16.1977

                     34                     35                     36
                      A                      A                      A
 Frequencies --   1105.1131              1121.9444              1137.1343
 Red. masses --      1.2440                 3.4083                 1.3173
 Frc consts  --      0.8951                 2.5277                 1.0036
 IR Inten    --      1.0348                28.3299                 9.3712

                     37                     38                     39
                      A                      A                      A
 Frequencies --   1172.2708              1186.0577              1192.4506
 Red. masses --      3.3502                 7.0872                 1.2814
 Frc consts  --      2.7125                 5.8741                 1.0735
 IR Inten    --    129.8079               197.7816                 1.7511

                     40                     41                     42
                      A                      A                      A
 Frequencies --   1208.9096              1238.6659              1328.9560
 Red. masses --      1.1974                 1.7397                 1.2737
 Frc consts  --      1.0310                 1.5726                 1.3254
 IR Inten    --     26.0977                23.7373                 1.1972

                     43                     44                     45
                      A                      A                      A
 Frequencies --   1344.6276              1357.4700              1397.6160
 Red. masses --      7.8382                 5.7383                11.3643
 Frc consts  --      8.3497                 6.2301                13.0788
 IR Inten    --    308.9264               276.9242               183.8982

                     46                     47                     48
                      A                      A                      A
 Frequencies --   1451.1733              1497.3176              1512.7988
 Red. masses --      3.2490                 1.2422                 1.0435
 Frc consts  --      4.0312                 1.6409                 1.4071
 IR Inten    --     46.9150                36.0540                 9.4296

                     49                     50                     51
                      A                      A                      A
 Frequencies --   1522.4027              1546.9118              1621.2970
 Red. masses --      1.0457                 2.5209                 1.1111
 Frc consts  --      1.4279                 3.5541                 1.7207
 IR Inten    --     12.3097                 6.4150                53.7156

                     52                     53                     54
                      A                      A                      A
 Frequencies --   1663.1235              1685.7454              1853.2403
 Red. masses --      7.7678                 6.1008                11.9906
 Frc consts  --     12.6590                10.2147                24.2636
 IR Inten    --      5.8506                 8.9658               292.2506

                     55                     56                     57
                      A                      A                      A
 Frequencies --   3108.7069              3188.5398              3223.1055
 Red. masses --      1.0301                 1.1075                 1.1070
 Frc consts  --      5.8653                 6.6340                 6.7757
 IR Inten    --     31.1817                13.6784                11.6152

                     58                     59                     60
                      A                      A                      A
 Frequencies --   3241.0787              3242.7800              3253.9717
 Red. masses --      1.0897                 1.0903                 1.0952
 Frc consts  --      6.7440                 6.7549                 6.8325
 IR Inten    --      2.0015                 0.6792                 0.1904

                     61                     62                     63
                      A                      A                      A
 Frequencies --   3261.6944              3544.0286              3663.0917
 Red. masses --      1.0943                 1.0468                 1.1002
 Frc consts  --      6.8592                 7.7468                 8.6978
 IR Inten    --      0.0672                41.5226                44.1779

 - Thermochemistry -
 -------------------
 Temperature   298.150 Kelvin.  Pressure   1.00000 Atm.
 Atom     1 has atomic number  6 and mass  12.00000

 Molecular mass:   215.02523 amu.
 Principal axes and moments of inertia in atomic units:
                           1         2         3
     Eigenvalues --   906.128766841.910657358.12133
           X            0.99995   0.00748   0.00604
           Y           -0.00746   0.99997  -0.00271
           Z           -0.00606   0.00267   0.99998
 This molecule is an asymmetric top.
 Rotational symmetry number  1.
 Warning -- assumption of classical behavior for rotation
           may cause significant error
 Rotational temperatures (Kelvin)      0.09559     0.01266     0.01177
 Rotational constants (GHZ):           1.99171     0.26378     0.24527
 Zero-point vibrational energy     454812.2 (Joules/Mol)
                                  108.70272 (Kcal/Mol)
 Warning -- explicit consideration of  20 degrees of freedom as
           vibrations may cause significant error
 Vibrational temperatures:     52.75    79.18    98.73   163.05   188.66
          (Kelvin)            246.30   286.09   295.30   341.89   407.06
                              477.05   483.37   583.03   603.21   632.71
                              661.27   662.03   725.95   777.99   844.42
                              918.87   970.28  1019.53  1086.49  1134.13
                             1229.25  1251.64  1269.71  1286.74  1460.45
                             1475.45  1478.09  1508.00  1590.01  1614.23
                             1636.08  1686.64  1706.47  1715.67  1739.35
                             1782.16  1912.07  1934.62  1953.10  2010.86
                             2087.91  2154.31  2176.58  2190.40  2225.66
                             2332.68  2392.86  2425.41  2666.40  4472.74
                             4587.60  4637.33  4663.19  4665.64  4681.74
                             4692.85  5099.07  5270.37

 Zero-point correction=                           0.173229 (Hartree/Particle)
 Thermal correction to Energy=                    0.186460
 Thermal correction to Enthalpy=                  0.187404
 Thermal correction to Gibbs Free Energy=         0.132328
 Sum of electronic and zero-point Energies=          -1063.594690
 Sum of electronic and thermal Energies=             -1063.581459
 Sum of electronic and thermal Enthalpies=           -1063.580515
 Sum of electronic and thermal Free Energies=        -1063.635591

                     E (Thermal)             CV                S
                      KCal/Mol        Cal/Mol-Kelvin    Cal/Mol-Kelvin
 Total                  117.005             48.806            115.917
 Electronic               0.000              0.000              0.000
 Translational            0.889              2.981             42.000
 Rotational               0.889              2.981             32.189
 Vibrational            115.228             42.845             41.727
 Vibration     1          0.594              1.982              5.432
 Vibration     2          0.596              1.976              4.628
 Vibration     3          0.598              1.969              4.192
 Vibration     4          0.607              1.938              3.211
 Vibration     5          0.612              1.922              2.930
 Vibration     6          0.626              1.878              2.422
 Vibration     7          0.637              1.841              2.144
 Vibration     8          0.640              1.832              2.086
 Vibration     9          0.656              1.783              1.821
 Vibration    10          0.682              1.705              1.516
 Vibration    11          0.714              1.612              1.252
 Vibration    12          0.717              1.604              1.231
 Vibration    13          0.770              1.459              0.944
 Vibration    14          0.782              1.428              0.895
 Vibration    15          0.800              1.383              0.827
 Vibration    16          0.818              1.340              0.767
 Vibration    17          0.818              1.338              0.766
 Vibration    18          0.860              1.240              0.647
 Vibration    19          0.896              1.160              0.564
 Vibration    20          0.944              1.060              0.473

                           ! Non-Optimized Parameters !
 Normal termination of Gaussian 16 at Sun May 22 15:43:42 2022.
