 Gaussian 16, Revision C.01,
 Gaussian 16:  ES64L-G16RevC.01  3-Jul-2019

 --------------------------------------------------
 #M062X/gen 6D INT(grid=ultrafine) OPT Freq=noraman
 --------------------------------------------------

 ----------
 HA.10.freq
 ----------
 Symbolic Z-matrix:
 Charge =  0 Multiplicity = 1

 SCF Done:  E(RM062X) =  -930.592231289     A.U. after   16 cycles
 SCF Done:  E(RM062X) =  -930.594020800     A.U. after   14 cycles
 SCF Done:  E(RM062X) =  -930.594183992     A.U. after   13 cycles
 SCF Done:  E(RM062X) =  -930.594205155     A.U. after   13 cycles
 SCF Done:  E(RM062X) =  -930.594212988     A.U. after   12 cycles
 SCF Done:  E(RM062X) =  -930.594217271     A.U. after   12 cycles
 SCF Done:  E(RM062X) =  -930.594218379     A.U. after   11 cycles
 SCF Done:  E(RM062X) =  -930.594218662     A.U. after   10 cycles
 SCF Done:  E(RM062X) =  -930.594218856     A.U. after   10 cycles
 Optimization completed.
    -- Stationary point found.
 Normal termination of Gaussian 16 at Wed Jun 29 11:45:54 2022.

 ------------------------------------------------------------------
 #N Geom=AllCheck Guess=TCheck SCRF=Check GenChk RM062X/ChkBas Freq
 ------------------------------------------------------------------

 Structure from the checkpoint file:  "/jobfs/48700548.gadi-pbs/Gau-82177.chk"
 ----------
 HA.10.freq
 ----------
 Charge =  0 Multiplicity = 1

                         Standard orientation:
 ---------------------------------------------------------------------
 Center     Atomic      Atomic             Coordinates (Angstroms)
 Number     Number       Type             X           Y           Z
 ---------------------------------------------------------------------
      1          6           0       -0.525118    0.058796   -0.094115
      2          6           0        0.059918    1.327845   -0.073760
      3          1           0       -0.568659    2.211498   -0.138249
      4          6           0        1.435661    1.445307   -0.001656
      5          1           0        1.895619    2.430371    0.010211
      6          6           0        2.257644    0.298745    0.046665
      7          7           0        3.620717    0.441159    0.143150
      8          6           0        1.650254   -0.970667    0.009327
      9          1           0        2.257294   -1.868988    0.020944
     10          6           0        0.266743   -1.084788   -0.058376
     11          1           0       -0.201576   -2.063636   -0.111481
     12         16           0       -2.290581   -0.093559   -0.142819
     13          8           0       -2.821782    1.133477   -0.712610
     14          8           0       -2.604138   -1.411561   -0.668988
     15          7           0       -2.840600   -0.112746    1.436202
     16          1           0       -2.644735    0.760173    1.920007
     17          1           0       -2.497012   -0.919722    1.951134
     18          6           0        4.527559   -0.674211   -0.019176
     19          1           0        3.986326    1.358290   -0.067693
     20          1           0        4.386152   -1.193030   -0.977727
     21          1           0        4.395250   -1.397694    0.792296
     22          1           0        5.551210   -0.300700    0.029531
 ---------------------------------------------------------------------

 SCF Done:  E(RM062X) =  -930.594218856     A.U. after    1 cycles

 The electronic state is 1-A.
 Alpha  occ. eigenvalues --  -90.15986 -19.63657 -19.63656 -14.80082 -14.79567
 Alpha  occ. eigenvalues --  -10.62164 -10.59950 -10.58367 -10.58109 -10.58096
 Alpha  occ. eigenvalues --  -10.57193 -10.56988  -8.46936  -6.39155  -6.39108
 Alpha  occ. eigenvalues --   -6.39008  -1.23950  -1.12627  -1.07340  -1.01869
 Alpha  occ. eigenvalues --   -0.97563  -0.87607  -0.86794  -0.80628  -0.74909
 Alpha  occ. eigenvalues --   -0.71726  -0.68529  -0.63996  -0.62323  -0.61132
 Alpha  occ. eigenvalues --   -0.58255  -0.56743  -0.54023  -0.53891  -0.52633
 Alpha  occ. eigenvalues --   -0.51281  -0.50677  -0.48865  -0.47388  -0.46486
 Alpha  occ. eigenvalues --   -0.42363  -0.41127  -0.40604  -0.39560  -0.37763
 Alpha  occ. eigenvalues --   -0.36987  -0.36647  -0.33011  -0.27281
 Alpha virt. eigenvalues --   -0.00342  -0.00290   0.00300   0.00968   0.01609
 Alpha virt. eigenvalues --    0.03005   0.04025   0.04186   0.05259   0.05739
 Alpha virt. eigenvalues --    0.06654   0.07197   0.08161   0.08653   0.09344

 Mulliken charges:
               1
     1  C   -0.946134
     2  C   -0.176276
     3  H    0.251211
     4  C   -0.612591
     5  H    0.201404
     6  C    0.369722
     7  N   -0.598746
     8  C    0.770149
     9  H    0.206932
    10  C   -0.688530
    11  H    0.251173
    12  S    1.489665
    13  O   -0.551397
    14  O   -0.543945
    15  N   -0.940532
    16  H    0.435888
    17  H    0.436924
    18  C   -0.429239
    19  H    0.409172
    20  H    0.222066
    21  H    0.226154
    22  H    0.216930
 Sum of Mulliken charges =  -0.00000

 Dipole moment (field-independent basis, Debye):
    X=              7.5746    Y=              0.7177    Z=              3.3125  Tot=              8.2983
 Quadrupole moment (field-independent basis, Debye-Ang):
   XX=            -78.3210   YY=            -74.9137   ZZ=            -79.0327
   XY=              0.2527   XZ=            -11.1514   YZ=             -0.9005

  Exact polarizability:     175.089      -0.530     116.410      -1.289       0.053      81.779
 Approx polarizability:     185.598       1.046     162.376       2.630       0.116     104.061

                      1                      2                      3
                      A                      A                      A
 Frequencies --     45.4566                66.9708               117.0605
 Red. masses --      4.3196                 4.0015                 3.9331
 Frc consts  --      0.0053                 0.0106                 0.0318
 IR Inten    --      3.2146                 5.5499                 7.0861

                      4                      5                      6
                      A                      A                      A
 Frequencies --    146.0721               193.0276               233.4609
 Red. masses --      5.3592                 2.2247                 3.0866
 Frc consts  --      0.0674                 0.0488                 0.0991
 IR Inten    --      1.2159                 9.5072                15.6351

                      7                      8                      9
                      A                      A                      A
 Frequencies --    243.0472               274.3479               289.4200
 Red. masses --      1.4247                 1.9288                 2.8277
 Frc consts  --      0.0496                 0.0855                 0.1396
 IR Inten    --      1.7995                12.0810                15.5093

                     10                     11                     12
                      A                      A                      A
 Frequencies --    327.8412               358.7783               407.7979
 Red. masses --      1.3815                 5.3586                 3.0361
 Frc consts  --      0.0875                 0.4064                 0.2975
 IR Inten    --    122.0373                 3.4687                 9.2876

                     13                     14                     15
                      A                      A                      A
 Frequencies --    426.6211               458.3891               488.2876
 Red. masses --      3.0590                 3.2540                 5.8326
 Frc consts  --      0.3280                 0.4028                 0.8193
 IR Inten    --      0.0999                21.6563                18.1609

                     16                     17                     18
                      A                      A                      A
 Frequencies --    498.6808               542.4817               572.2592
 Red. masses --      4.0130                 3.1134                 4.4843
 Frc consts  --      0.5880                 0.5398                 0.8652
 IR Inten    --     12.9173                48.4871                22.1160

                     19                     20                     21
                      A                      A                      A
 Frequencies --    640.1141               659.3924               727.2470
 Red. masses --      6.3684                 3.2662                 3.4765
 Frc consts  --      1.5374                 0.8367                 1.0833
 IR Inten    --      2.9563                71.3924                 1.2700

                     22                     23                     24
                      A                      A                      A
 Frequencies --    731.8016               833.3913               839.1681
 Red. masses --      2.6584                 3.5577                 1.2630
 Frc consts  --      0.8388                 1.4558                 0.5240
 IR Inten    --    540.9434                34.2919                 1.1730

                     25                     26                     27
                      A                      A                      A
 Frequencies --    848.6018               863.6770               984.0053
 Red. masses --      1.8930                 3.1643                 1.3064
 Frc consts  --      0.8032                 1.3907                 0.7453
 IR Inten    --     70.3447                28.2859                 0.0419

                     28                     29                     30
                      A                      A                      A
 Frequencies --    996.2455              1020.5365              1102.8587
 Red. masses --      1.3352                 3.3926                 2.2511
 Frc consts  --      0.7808                 2.0818                 1.6132
 IR Inten    --      0.0373                 6.3320                 9.8964

                     31                     32                     33
                      A                      A                      A
 Frequencies --   1112.4513              1126.2669              1147.3324
 Red. masses --      1.2427                 3.0988                 1.4000
 Frc consts  --      0.9061                 2.3159                 1.0858
 IR Inten    --      2.7809                39.9334                 6.1924

                     34                     35                     36
                      A                      A                      A
 Frequencies --   1158.3954              1176.7579              1197.3460
 Red. masses --      1.2989                 4.6096                 1.7846
 Frc consts  --      1.0269                 3.7609                 1.5074
 IR Inten    --     15.1188               341.1749                21.5850

                     37                     38                     39
                      A                      A                      A
 Frequencies --   1221.1485              1318.6707              1337.9792
 Red. masses --      1.2785                 1.9122                 1.7323
 Frc consts  --      1.1233                 1.9591                 1.8272
 IR Inten    --      4.7146                25.7225                 8.3125

                     40                     41                     42
                      A                      A                      A
 Frequencies --   1375.9379              1391.9229              1456.3600
 Red. masses --      4.3889                 7.9154                 2.4288
 Frc consts  --      4.8956                 9.0356                 3.0352
 IR Inten    --     88.1641               218.1399                13.2654

                     43                     44                     45
                      A                      A                      A
 Frequencies --   1484.7329              1512.8850              1529.8608
 Red. masses --      1.2530                 1.0557                 1.6632
 Frc consts  --      1.6275                 1.4236                 2.2934
 IR Inten    --      0.8982                13.2980                 5.0061

                     46                     47                     48
                      A                      A                      A
 Frequencies --   1547.2924              1581.5637              1625.5732
 Red. masses --      1.1392                 2.7909                 1.1088
 Frc consts  --      1.6070                 4.1131                 1.7264
 IR Inten    --     11.3760               227.5537                50.9104

                     49                     50                     51
                      A                      A                      A
 Frequencies --   1657.9396              1685.6178              3050.2432
 Red. masses --      5.5101                 5.9738                 1.0448
 Frc consts  --      8.9238                10.0004                 5.7274
 IR Inten    --     13.4747               281.7680                63.7300

                     52                     53                     54
                      A                      A                      A
 Frequencies --   3118.2619              3184.8946              3211.2417
 Red. masses --      1.0963                 1.0991                 1.0895
 Frc consts  --      6.2806                 6.5684                 6.6197
 IR Inten    --     28.0181                16.3738                10.8036

                     55                     56                     57
                      A                      A                      A
 Frequencies --   3235.2427              3239.4273              3255.1286
 Red. masses --      1.0897                 1.0939                 1.0929
 Frc consts  --      6.7202                 6.7632                 6.8229
 IR Inten    --      0.4392                 1.8785                 7.0363

                     58                     59                     60
                      A                      A                      A
 Frequencies --   3538.9873              3655.3741              3660.8090
 Red. masses --      1.0472                 1.0991                 1.0775
 Frc consts  --      7.7277                 8.6523                 8.5078
 IR Inten    --     33.7952                36.4637                46.3859

 - Thermochemistry -
 -------------------
 Temperature   298.150 Kelvin.  Pressure   1.00000 Atm.
 Atom     1 has atomic number  6 and mass  12.00000

 Molecular mass:   186.04630 amu.
 Principal axes and moments of inertia in atomic units:
                           1         2         3
     Eigenvalues --   762.844374393.824424768.30547
           X            0.99993  -0.00773  -0.00913
           Y            0.00770   0.99996  -0.00389
           Z            0.00916   0.00382   0.99995
 This molecule is an asymmetric top.
 Rotational symmetry number  1.
 Warning -- assumption of classical behavior for rotation
           may cause significant error
 Rotational temperatures (Kelvin)      0.11354     0.01971     0.01816
 Rotational constants (GHZ):           2.36581     0.41074     0.37849
 Zero-point vibrational energy     458963.4 (Joules/Mol)
                                  109.69488 (Kcal/Mol)
 Warning -- explicit consideration of  18 degrees of freedom as
           vibrations may cause significant error
 Vibrational temperatures:     65.40    96.36   168.42   210.17   277.72
          (Kelvin)            335.90   349.69   394.73   416.41   471.69
                              516.20   586.73   613.81   659.52   702.54
                              717.49   780.51   823.35   920.98   948.72
                             1046.35  1052.90  1199.06  1207.38  1220.95
                             1242.64  1415.76  1433.38  1468.32  1586.77
                             1600.57  1620.45  1650.76  1666.67  1693.09
                             1722.71  1756.96  1897.27  1925.05  1979.67
                             2002.67  2095.38  2136.20  2176.70  2201.13
                             2226.21  2275.52  2338.84  2385.41  2425.23
                             4388.62  4486.48  4582.35  4620.26  4654.79
                             4660.81  4683.40  5091.81  5259.27  5267.09

 Zero-point correction=                           0.174810 (Hartree/Particle)
 Thermal correction to Energy=                    0.186594
 Thermal correction to Enthalpy=                  0.187538
 Thermal correction to Gibbs Free Energy=         0.136733
 Sum of electronic and zero-point Energies=           -930.419409
 Sum of electronic and thermal Energies=              -930.407625
 Sum of electronic and thermal Enthalpies=            -930.406680
 Sum of electronic and thermal Free Energies=         -930.457486

                     E (Thermal)             CV                S
                      KCal/Mol        Cal/Mol-Kelvin    Cal/Mol-Kelvin
 Total                  117.090             44.537            106.929
 Electronic               0.000              0.000              0.000
 Translational            0.889              2.981             41.569
 Rotational               0.889              2.981             31.147
 Vibrational            115.312             38.575             34.213
 Vibration     1          0.595              1.979              5.006
 Vibration     2          0.598              1.970              4.240
 Vibration     3          0.608              1.935              3.148
 Vibration     4          0.617              1.907              2.723
 Vibration     5          0.635              1.850              2.199
 Vibration     6          0.654              1.790              1.852
 Vibration     7          0.659              1.774              1.780
 Vibration     8          0.677              1.721              1.569
 Vibration     9          0.686              1.693              1.477
 Vibration    10          0.711              1.620              1.271
 Vibration    11          0.734              1.557              1.127
 Vibration    12          0.772              1.453              0.934
 Vibration    13          0.788              1.412              0.870
 Vibration    14          0.816              1.342              0.771
 Vibration    15          0.844              1.276              0.688
 Vibration    16          0.854              1.253              0.661
 Vibration    17          0.898              1.156              0.560
 Vibration    18          0.928              1.091              0.500

                           ! Non-Optimized Parameters !
 Normal termination of Gaussian 16 at Wed Jun 29 11:49:43 2022.
