 Gaussian 16, Revision C.01,
 Gaussian 16:  ES64L-G16RevC.01  3-Jul-2019

 --------------------------------------------------
 #M062X/gen 6D INT(grid=ultrafine) OPT Freq=noraman
 --------------------------------------------------

 -------------
 HA.17.a2.freq
 -------------
 Symbolic Z-matrix:
 Charge =  0 Multiplicity = 1

 SCF Done:  E(RM062X) =  -644.300581874     A.U. after   13 cycles
 SCF Done:  E(RM062X) =  -644.302595679     A.U. after   11 cycles
 SCF Done:  E(RM062X) =  -644.302817878     A.U. after   10 cycles
 SCF Done:  E(RM062X) =  -644.302854695     A.U. after   10 cycles
 SCF Done:  E(RM062X) =  -644.302874801     A.U. after   10 cycles
 SCF Done:  E(RM062X) =  -644.302881473     A.U. after    9 cycles
 SCF Done:  E(RM062X) =  -644.302882795     A.U. after    9 cycles
 Optimization completed.
    -- Stationary point found.
 Normal termination of Gaussian 16 at Fri May 20 19:51:17 2022.

 ------------------------------------------------------------------
 #N Geom=AllCheck Guess=TCheck SCRF=Check GenChk RM062X/ChkBas Freq
 ------------------------------------------------------------------

 Structure from the checkpoint file:  "/jobfs/40766272.gadi-pbs/Gau-84453.chk"
 -------------
 HA.17.a2.freq
 -------------
 Charge =  0 Multiplicity = 1

                         Standard orientation:
 ---------------------------------------------------------------------
 Center     Atomic      Atomic             Coordinates (Angstroms)
 Number     Number       Type             X           Y           Z
 ---------------------------------------------------------------------
      1         16           0        0.049287   -0.173621    0.000007
      2          8           0        0.165412   -0.859726    1.274024
      3          8           0        0.165318   -0.859889   -1.273929
      4          7           0        1.232404    0.989838   -0.000100
      5          1           0        1.297331    1.532002    0.855349
      6          6           0       -1.526025    0.677429    0.000004
      7          1           0       -1.600609    1.286041    0.902277
      8          1           0       -2.298353   -0.094526    0.000090
      9          1           0       -1.600678    1.285906   -0.902354
     10          1           0        1.297198    1.532004   -0.855559
 ---------------------------------------------------------------------

 SCF Done:  E(RM062X) =  -644.302882795     A.U. after    1 cycles

 The electronic state is 1-A.
 Alpha  occ. eigenvalues --  -90.17327 -19.64719 -19.64718 -14.80999 -10.59790
 Alpha  occ. eigenvalues --   -8.48282  -6.40515  -6.40442  -6.40345  -1.25183
 Alpha  occ. eigenvalues --   -1.13697  -1.03379  -0.87844  -0.72617  -0.63218
 Alpha  occ. eigenvalues --   -0.62129  -0.57622  -0.54997  -0.52087  -0.51100
 Alpha  occ. eigenvalues --   -0.42373  -0.40477  -0.38871  -0.38621  -0.37949
 Alpha virt. eigenvalues --   -0.00585   0.02902   0.04390   0.05252   0.05730
 Alpha virt. eigenvalues --    0.07354   0.07458   0.09273   0.10390   0.11942
 Alpha virt. eigenvalues --    0.14683   0.14750   0.16394   0.16637   0.17636

 Mulliken charges:
               1
     1  S    1.199137
     2  O   -0.568940
     3  O   -0.568927
     4  N   -0.954622
     5  H    0.427535
     6  C   -0.750015
     7  H    0.253985
     8  H    0.280332
     9  H    0.253985
    10  H    0.427531
 Sum of Mulliken charges =  -0.00000

 Dipole moment (field-independent basis, Debye):
    X=             -1.6809    Y=              5.3611    Z=             -0.0002  Tot=              5.6184
 Quadrupole moment (field-independent basis, Debye-Ang):
   XX=            -34.7059   YY=            -35.3645   ZZ=            -41.6729
   XY=              2.6054   XZ=             -0.0001   YZ=             -0.0005

  Exact polarizability:      46.866       0.227      43.667       0.000       0.000      45.320
 Approx polarizability:      49.820       0.660      50.669       0.000       0.000      58.716

                      1                      2                      3
                      A                      A                      A
 Frequencies --    224.1077               276.6799               283.8469
 Red. masses --      1.0347                 1.6229                 2.7059
 Frc consts  --      0.0306                 0.0732                 0.1285
 IR Inten    --      0.3996                 7.8055                17.6788

                      4                      5                      6
                      A                      A                      A
 Frequencies --    356.1645               453.2757               465.4007
 Red. masses --      2.3834                 2.2144                 2.6527
 Frc consts  --      0.1781                 0.2681                 0.3385
 IR Inten    --      1.1019                16.5274                47.1508

                      7                      8                      9
                      A                      A                      A
 Frequencies --    490.8374               535.1524               763.7898
 Red. masses --      3.4961                 3.1732                 5.2458
 Frc consts  --      0.4963                 0.5354                 1.8031
 IR Inten    --     44.3483               202.2590                68.5911

                     10                     11                     12
                      A                      A                      A
 Frequencies --    856.1004               982.9195              1002.6772
 Red. masses --      3.7166                 1.2745                 1.5400
 Frc consts  --      1.6049                 0.7255                 0.9122
 IR Inten    --     98.5774                 0.2333                40.7051

                     13                     14                     15
                      A                      A                      A
 Frequencies --   1091.9465              1179.9694              1377.3972
 Red. masses --      1.3127                11.8271                 1.2344
 Frc consts  --      0.9222                 9.7022                 1.3798
 IR Inten    --      0.0006               191.6991                13.9883

                     16                     17                     18
                      A                      A                      A
 Frequencies --   1399.3757              1474.2888              1484.2341
 Red. masses --     11.2044                 1.0483                 1.0598
 Frc consts  --     12.9273                 1.3424                 1.3756
 IR Inten    --    305.3959                 3.9523                 1.3494

                     19                     20                     21
                      A                      A                      A
 Frequencies --   1613.0806              3109.0650              3211.8944
 Red. masses --      1.1171                 1.0299                 1.1060
 Frc consts  --      1.7127                 5.8653                 6.7225
 IR Inten    --     60.4883                 0.7309                 0.2681

                     22                     23                     24
                      A                      A                      A
 Frequencies --   3220.9834              3563.0180              3690.1594
 Red. masses --      1.1082                 1.0456                 1.1025
 Frc consts  --      6.7743                 7.8212                 8.8455
 IR Inten    --      0.4341                42.7251                60.4332

 - Thermochemistry -
 -------------------
 Temperature   298.150 Kelvin.  Pressure   1.00000 Atm.
 Atom     1 has atomic number 16 and mass  31.97207

 Molecular mass:    95.00410 amu.
 Principal axes and moments of inertia in atomic units:
                           1         2         3
     Eigenvalues --   380.78983 412.65381 424.93942
           X            0.99997  -0.00002  -0.00785
           Y            0.00785   0.00009   0.99997
           Z            0.00002   1.00000  -0.00009
 This molecule is an asymmetric top.
 Rotational symmetry number  1.
 Rotational temperatures (Kelvin)      0.22746     0.20989     0.20383
 Rotational constants (GHZ):           4.73947     4.37350     4.24706
 Zero-point vibrational energy     198020.0 (Joules/Mol)
                                   47.32792 (Kcal/Mol)
 Warning -- explicit consideration of   8 degrees of freedom as
           vibrations may cause significant error
 Vibrational temperatures:    322.44   398.08   408.39   512.44   652.16
          (Kelvin)            669.61   706.21   769.96  1098.92  1231.74
                             1414.20  1442.63  1571.07  1697.71  1981.77
                             2013.39  2121.17  2135.48  2320.86  4473.25
                             4621.20  4634.28  5126.39  5309.32

 Zero-point correction=                           0.075422 (Hartree/Particle)
 Thermal correction to Energy=                    0.081268
 Thermal correction to Enthalpy=                  0.082213
 Thermal correction to Gibbs Free Energy=         0.046592
 Sum of electronic and zero-point Energies=           -644.227461
 Sum of electronic and thermal Energies=              -644.221614
 Sum of electronic and thermal Enthalpies=            -644.220670
 Sum of electronic and thermal Free Energies=         -644.256291

                     E (Thermal)             CV                S
                      KCal/Mol        Cal/Mol-Kelvin    Cal/Mol-Kelvin
 Total                   50.997             20.855             74.970
 Electronic               0.000              0.000              0.000
 Translational            0.889              2.981             39.565
 Rotational               0.889              2.981             25.704
 Vibrational             49.219             14.893              9.701
 Vibration     1          0.649              1.804              1.926
 Vibration     2          0.678              1.717              1.554
 Vibration     3          0.682              1.704              1.510
 Vibration     4          0.732              1.563              1.139
 Vibration     5          0.812              1.354              0.786
 Vibration     6          0.823              1.327              0.751
 Vibration     7          0.847              1.270              0.681
 Vibration     8          0.890              1.172              0.576

 Optimization completed.
    -- Stationary point found.
 Normal termination of Gaussian 16 at Fri May 20 19:51:43 2022.
