 Gaussian 16, Revision C.01,
 Gaussian 16:  ES64L-G16RevC.01  3-Jul-2019

 --------------------------------------------------
 #M062X/gen 6D INT(grid=ultrafine) OPT Freq=noraman
 --------------------------------------------------

 ----------
 HA.12.freq
 ----------
 Symbolic Z-matrix:
 Charge =  0 Multiplicity = 1

 SCF Done:  E(RM062X) =  -988.554521135     A.U. after   16 cycles
 SCF Done:  E(RM062X) =  -988.556331784     A.U. after   15 cycles
 SCF Done:  E(RM062X) =  -988.556487369     A.U. after   14 cycles
 SCF Done:  E(RM062X) =  -988.556478261     A.U. after   15 cycles
 SCF Done:  E(RM062X) =  -988.556460620     A.U. after   15 cycles
 SCF Done:  E(RM062X) =  -988.556506620     A.U. after   14 cycles
 SCF Done:  E(RM062X) =  -988.556514796     A.U. after   12 cycles
 SCF Done:  E(RM062X) =  -988.556516535     A.U. after   12 cycles
 SCF Done:  E(RM062X) =  -988.556516912     A.U. after   12 cycles
 SCF Done:  E(RM062X) =  -988.556517099     A.U. after   11 cycles
 SCF Done:  E(RM062X) =  -988.556517259     A.U. after   12 cycles
 SCF Done:  E(RM062X) =  -988.556517306     A.U. after   11 cycles
 Optimization completed.
    -- Stationary point found.
 Normal termination of Gaussian 16 at Wed Jun 29 13:43:45 2022.

 ------------------------------------------------------------------
 #N Geom=AllCheck Guess=TCheck SCRF=Check GenChk RM062X/ChkBas Freq
 ------------------------------------------------------------------

 Structure from the checkpoint file:  "/jobfs/48735345.gadi-pbs/Gau-573248.chk"
 ----------
 HA.12.freq
 ----------
 Charge =  0 Multiplicity = 1

                         Standard orientation:
 ---------------------------------------------------------------------
 Center     Atomic      Atomic             Coordinates (Angstroms)
 Number     Number       Type             X           Y           Z
 ---------------------------------------------------------------------
      1          6           0       -0.781008   -0.006146   -0.105803
      2          6           0       -0.131441   -1.240120   -0.100677
      3          1           0       -0.711076   -2.156731   -0.160350
      4          6           0        1.256568   -1.265789   -0.049118
      5          1           0        1.799964   -2.205444   -0.047310
      6          6           0        1.985079   -0.071316   -0.011515
      7          6           0        3.488182   -0.159771    0.040728
      8          6           0        1.313681    1.154660   -0.032153
      9          1           0        1.868194    2.087915   -0.019696
     10          6           0       -0.078145    1.193978   -0.078983
     11          1           0       -0.615527    2.136704   -0.118961
     12         16           0       -2.570081    0.036088   -0.127408
     13          8           0       -2.962267    1.347464   -0.609669
     14          8           0       -3.022723   -1.203165   -0.730862
     15          7           0       -3.071667   -0.027854    1.457628
     16          1           0       -2.792148    0.786745    1.997723
     17          1           0       -2.839255   -0.906009    1.914142
     18          8           0        4.031033   -1.244113    0.083456
     19          6           0        4.292170    1.120822    0.039015
     20          1           0        4.039015    1.738603    0.907305
     21          1           0        4.083042    1.709092   -0.860748
     22          1           0        5.351892    0.867300    0.070658
 ---------------------------------------------------------------------

 SCF Done:  E(RM062X) =  -988.556517306     A.U. after    1 cycles

 The electronic state is 1-A.
 Alpha  occ. eigenvalues --  -90.17854 -19.66132 -19.65502 -19.65470 -14.81357
 Alpha  occ. eigenvalues --  -10.66644 -10.61480 -10.59852 -10.59776 -10.59662
 Alpha  occ. eigenvalues --  -10.59622 -10.59036 -10.56962  -8.48804  -6.41022
 Alpha  occ. eigenvalues --   -6.40972  -6.40884  -1.25883  -1.19163  -1.14539
 Alpha  occ. eigenvalues --   -1.03758  -1.00657  -0.91197  -0.88614  -0.85703
 Alpha  occ. eigenvalues --   -0.78431  -0.73179  -0.71757  -0.66280  -0.65014
 Alpha  occ. eigenvalues --   -0.63085  -0.59771  -0.57894  -0.57191  -0.55333
 Alpha  occ. eigenvalues --   -0.53979  -0.53512  -0.52864  -0.51521  -0.50335
 Alpha  occ. eigenvalues --   -0.48348  -0.46777  -0.45051  -0.44072  -0.42913
 Alpha  occ. eigenvalues --   -0.41357  -0.40586  -0.39561  -0.38293  -0.34767
 Alpha  occ. eigenvalues --   -0.34624  -0.34123
 Alpha virt. eigenvalues --   -0.05917  -0.01595  -0.00574   0.00920   0.02674
 Alpha virt. eigenvalues --    0.03017   0.03345   0.04014   0.04356   0.05209
 Alpha virt. eigenvalues --    0.05523   0.06291   0.06775   0.07342   0.08122

 Mulliken charges:
               1
     1  C   -1.338710
     2  C   -0.105275
     3  H    0.259093
     4  C    0.319328
     5  H    0.261606
     6  C    0.446487
     7  C    0.672380
     8  C   -0.545100
     9  H    0.219467
    10  C   -0.419269
    11  H    0.260449
    12  S    1.573032
    13  O   -0.532049
    14  O   -0.515566
    15  N   -0.929639
    16  H    0.441309
    17  H    0.441952
    18  O   -0.408393
    19  C   -0.839907
    20  H    0.238617
    21  H    0.242089
    22  H    0.258100
 Sum of Mulliken charges =   0.00000

 Dipole moment (field-independent basis, Debye):
    X=              3.0740    Y=              2.1631    Z=              3.6226  Tot=              5.2203
 Quadrupole moment (field-independent basis, Debye-Ang):
   XX=           -104.0514   YY=            -81.8259   ZZ=            -80.5883
   XY=             12.0062   XZ=            -11.0475   YZ=              0.0596

  Exact polarizability:     172.133      -1.433     124.608      -1.539       0.080      81.519
 Approx polarizability:     181.108      -6.990     179.458       1.096       0.282     105.448

                      1                      2                      3
                      A                      A                      A
 Frequencies --     34.4082                60.8061                66.1766
 Red. masses --      4.9375                 3.7480                 7.1170
 Frc consts  --      0.0034                 0.0082                 0.0184
 IR Inten    --      4.3431                 0.8772                 7.3991

                      4                      5                      6
                      A                      A                      A
 Frequencies --    135.2913               172.4760               190.9794
 Red. masses --      6.8051                 4.5865                 1.0481
 Frc consts  --      0.0734                 0.0804                 0.0225
 IR Inten    --      5.3731                 6.9595                 0.2611

                      7                      8                      9
                      A                      A                      A
 Frequencies --    231.9130               246.8705               285.5915
 Red. masses --      4.0076                 9.4471                 1.5945
 Frc consts  --      0.1270                 0.3392                 0.0766
 IR Inten    --      6.6741                 0.2114                 9.9332

                     10                     11                     12
                      A                      A                      A
 Frequencies --    312.8535               396.9706               416.6617
 Red. masses --      4.8844                 3.3736                 2.8977
 Frc consts  --      0.2817                 0.3132                 0.2964
 IR Inten    --      8.5744                 3.9827                 0.1437

                     13                     14                     15
                      A                      A                      A
 Frequencies --    424.6190               448.8669               460.3325
 Red. masses --      3.3269                 5.0220                 3.4697
 Frc consts  --      0.3534                 0.5962                 0.4332
 IR Inten    --      6.2014                 2.5106                17.1470

                     16                     17                     18
                      A                      A                      A
 Frequencies --    495.2510               531.1500               576.9536
 Red. masses --      5.3198                 5.0920                 4.0169
 Frc consts  --      0.7688                 0.8464                 0.7878
 IR Inten    --     13.3037                34.5845                15.8155

                     19                     20                     21
                      A                      A                      A
 Frequencies --    602.3854               627.5561               639.2047
 Red. masses --      2.4073                 3.0012                 7.0352
 Frc consts  --      0.5147                 0.6964                 1.6936
 IR Inten    --     26.9910                19.3067                 0.3218

                     22                     23                     24
                      A                      A                      A
 Frequencies --    680.6159               742.9114               791.5072
 Red. masses --      2.7205                 3.7761                 5.3851
 Frc consts  --      0.7425                 1.2279                 1.9877
 IR Inten    --    562.0234                 2.5752                35.5049

                     25                     26                     27
                      A                      A                      A
 Frequencies --    859.1296               870.7026               883.5442
 Red. masses --      1.8025                 2.2715                 1.3177
 Frc consts  --      0.7839                 1.0146                 0.6061
 IR Inten    --     88.9405                14.8381                 3.9048

                     28                     29                     30
                      A                      A                      A
 Frequencies --    978.9332              1003.2835              1025.8701
 Red. masses --      2.0945                 1.3325                 1.3642
 Frc consts  --      1.1826                 0.7902                 0.8459
 IR Inten    --     18.1351                 0.0990                 0.5670

                     31                     32                     33
                      A                      A                      A
 Frequencies --   1033.1740              1054.6519              1103.6895
 Red. masses --      3.5659                 1.8756                 1.2481
 Frc consts  --      2.2427                 1.2291                 0.8958
 IR Inten    --      5.9622                 0.4139                 0.9728

                     34                     35                     36
                      A                      A                      A
 Frequencies --   1105.7567              1123.7219              1140.9254
 Red. masses --      2.5715                 3.2597                 1.3173
 Frc consts  --      1.8525                 2.4252                 1.0103
 IR Inten    --      8.5933                28.9854                 6.1413

                     37                     38                     39
                      A                      A                      A
 Frequencies --   1184.8500              1209.3828              1299.6159
 Red. masses --      7.5611                 1.1729                 3.3813
 Frc consts  --      6.2541                 1.0108                 3.3649
 IR Inten    --    236.5592                15.6044               164.7609

                     40                     41                     42
                      A                      A                      A
 Frequencies --   1329.0780              1348.6138              1397.4749
 Red. masses --      1.2724                 9.5868                11.7171
 Frc consts  --      1.3243                10.2730                13.4822
 IR Inten    --      3.3749                32.0830               178.2922

                     43                     44                     45
                      A                      A                      A
 Frequencies --   1409.3384              1450.2126              1495.3469
 Red. masses --      1.4121                 3.1504                 1.0517
 Frc consts  --      1.6526                 3.9037                 1.3856
 IR Inten    --     47.0417                54.3909                 9.7384

                     46                     47                     48
                      A                      A                      A
 Frequencies --   1501.5994              1544.4793              1619.9940
 Red. masses --      1.0467                 2.4469                 1.1111
 Frc consts  --      1.3905                 3.4390                 1.7181
 IR Inten    --     13.9209                 4.0728                53.8022

                     49                     50                     51
                      A                      A                      A
 Frequencies --   1659.3855              1682.2998              1842.0728
 Red. masses --      7.5376                 6.0785                11.5344
 Frc consts  --     12.2286                10.1357                23.0599
 IR Inten    --      7.2413                10.3851               211.0366

                     52                     53                     54
                      A                      A                      A
 Frequencies --   3086.9868              3154.5107              3206.9445
 Red. masses --      1.0379                 1.1003                 1.1022
 Frc consts  --      5.8275                 6.4512                 6.6786
 IR Inten    --      1.5807                 4.2358                 6.5313

                     55                     56                     57
                      A                      A                      A
 Frequencies --   3235.6632              3238.6056              3248.3190
 Red. masses --      1.0886                 1.0894                 1.0950
 Frc consts  --      6.7148                 6.7323                 6.8072
 IR Inten    --      1.8801                 1.8946                 2.8311

                     58                     59                     60
                      A                      A                      A
 Frequencies --   3252.5206              3544.1226              3663.5546
 Red. masses --      1.0948                 1.0468                 1.1002
 Frc consts  --      6.8239                 7.7472                 8.7004
 IR Inten    --      0.3407                42.2637                44.5402

 - Thermochemistry -
 -------------------
 Temperature   298.150 Kelvin.  Pressure   1.00000 Atm.
 Atom     1 has atomic number  6 and mass  12.00000

 Molecular mass:   199.03032 amu.
 Principal axes and moments of inertia in atomic units:
                           1         2         3
     Eigenvalues --   871.785265326.052125808.72114
           X            0.99985   0.01539  -0.00730
           Y           -0.01539   0.99988   0.00068
           Z            0.00731  -0.00057   0.99997
 This molecule is an asymmetric top.
 Rotational symmetry number  1.
 Warning -- assumption of classical behavior for rotation
           may cause significant error
 Rotational temperatures (Kelvin)      0.09935     0.01626     0.01491
 Rotational constants (GHZ):           2.07017     0.33885     0.31070
 Zero-point vibrational energy     438794.5 (Joules/Mol)
                                  104.87439 (Kcal/Mol)
 Warning -- explicit consideration of  19 degrees of freedom as
           vibrations may cause significant error
 Vibrational temperatures:     49.51    87.49    95.21   194.65   248.15
          (Kelvin)            274.78   333.67   355.19   410.90   450.13
                              571.15   599.48   610.93   645.82   662.32
                              712.56   764.21   830.11   866.70   902.91
                              919.67   979.25  1068.88  1138.80  1236.10
                             1252.75  1271.22  1408.47  1443.50  1476.00
                             1486.51  1517.41  1587.96  1590.94  1616.79
                             1641.54  1704.73  1740.03  1869.86  1912.25
                             1940.35  2010.65  2027.72  2086.53  2151.47
                             2160.47  2222.16  2330.81  2387.49  2420.45
                             2650.33  4441.49  4538.64  4614.08  4655.40
                             4659.63  4673.61  4679.65  5099.20  5271.04

 Zero-point correction=                           0.167128 (Hartree/Particle)
 Thermal correction to Energy=                    0.179448
 Thermal correction to Enthalpy=                  0.180392
 Thermal correction to Gibbs Free Energy=         0.127580
 Sum of electronic and zero-point Energies=           -988.389389
 Sum of electronic and thermal Energies=              -988.377070
 Sum of electronic and thermal Enthalpies=            -988.376125
 Sum of electronic and thermal Free Energies=         -988.428938

                     E (Thermal)             CV                S
                      KCal/Mol        Cal/Mol-Kelvin    Cal/Mol-Kelvin
 Total                  112.605             46.184            111.153
 Electronic               0.000              0.000              0.000
 Translational            0.889              2.981             41.770
 Rotational               0.889              2.981             31.667
 Vibrational            110.828             40.223             37.716
 Vibration     1          0.594              1.983              5.558
 Vibration     2          0.597              1.973              4.431
 Vibration     3          0.598              1.970              4.264
 Vibration     4          0.613              1.918              2.869
 Vibration     5          0.626              1.876              2.408
 Vibration     6          0.634              1.852              2.218
 Vibration     7          0.653              1.792              1.864
 Vibration     8          0.661              1.768              1.753
 Vibration     9          0.683              1.700              1.500
 Vibration    10          0.701              1.649              1.347
 Vibration    11          0.763              1.477              0.974
 Vibration    12          0.780              1.434              0.903
 Vibration    13          0.787              1.417              0.876
 Vibration    14          0.808              1.363              0.799
 Vibration    15          0.818              1.338              0.765
 Vibration    16          0.851              1.261              0.670
 Vibration    17          0.886              1.181              0.585
 Vibration    18          0.933              1.081              0.491
 Vibration    19          0.961              1.027              0.446

 Optimization completed.
    -- Stationary point found.
 Normal termination of Gaussian 16 at Wed Jun 29 13:48:00 2022.
