 Gaussian 16, Revision C.01,
 Gaussian 16:  ES64L-G16RevC.01  3-Jul-2019

 --------------------------------------------------
 #M062X/gen 6D INT(grid=ultrafine) OPT Freq=noraman
 --------------------------------------------------

 -------------
 HA.19.a1.freq
 -------------
 Symbolic Z-matrix:
 Charge =  0 Multiplicity = 1

 SCF Done:  E(RM062X) =  -1633.86211932     A.U. after   16 cycles
 SCF Done:  E(RM062X) =  -1633.86434741     A.U. after   14 cycles
 SCF Done:  E(RM062X) =  -1633.86472506     A.U. after   14 cycles
 SCF Done:  E(RM062X) =  -1633.86483174     A.U. after   14 cycles
 SCF Done:  E(RM062X) =  -1633.86490168     A.U. after   12 cycles
 SCF Done:  E(RM062X) =  -1633.86495548     A.U. after   13 cycles
 SCF Done:  E(RM062X) =  -1633.86496084     A.U. after   11 cycles
 SCF Done:  E(RM062X) =  -1633.86496172     A.U. after   10 cycles
 SCF Done:  E(RM062X) =  -1633.86496194     A.U. after   10 cycles
 SCF Done:  E(RM062X) =  -1633.86496196     A.U. after    9 cycles
 Optimization completed.
    -- Stationary point found.
 Normal termination of Gaussian 16 at Fri May 27 10:10:51 2022.

 ------------------------------------------------------------------
 #N Geom=AllCheck Guess=TCheck SCRF=Check GenChk RM062X/ChkBas Freq
 ------------------------------------------------------------------

 Structure from the checkpoint file:  "/jobfs/41454877.gadi-pbs/Gau-3027356.chk"
 -------------
 HA.19.a1.freq
 -------------
 Charge =  0 Multiplicity = 1

                         Standard orientation:
 ---------------------------------------------------------------------
 Center     Atomic      Atomic             Coordinates (Angstroms)
 Number     Number       Type             X           Y           Z
 ---------------------------------------------------------------------
      1          6           0        2.957756   -0.125631    0.183186
      2         16           0        4.628314    0.436466    0.194917
      3          8           0        4.625753    1.867765    0.409699
      4          8           0        5.324801   -0.501378    1.052075
      5          7           0        5.219909    0.215506   -1.337847
      6          1           0        4.804551    0.848531   -2.016543
      7          1           0        5.212134   -0.756497   -1.635055
      8          6           0        2.374438   -1.165738    0.837258
      9          6           0        0.995815   -1.130485    0.435484
     10          6           0        0.904728   -0.068227   -0.432596
     11          8           0        2.077875    0.567719   -0.606159
     12          6           0       -0.286975   -1.754064    0.613607
     13          6           0       -1.253246   -1.139457   -0.122449
     14         16           0       -0.670108    0.244581   -1.052228
     15          1           0        2.884368   -1.838154    1.512329
     16          1           0       -0.487643   -2.609641    1.248448
     17          6           0       -2.700289   -1.509256   -0.261008
     18          7           0       -3.557191   -0.335071   -0.228606
     19          6           0       -3.573898    0.296351    1.089502
     20          6           0       -4.443965    1.542883    1.045348
     21          8           0       -5.760680    1.229130    0.634539
     22          6           0       -5.757802    0.624171   -0.642419
     23          6           0       -4.921233   -0.647595   -0.643206
     24          1           0       -2.950974   -2.236340    0.535583
     25          1           0       -2.863578   -2.011815   -1.222857
     26          1           0       -2.550981    0.566801    1.373003
     27          1           0       -3.970511   -0.402135    1.851527
     28          1           0       -4.000698    2.274272    0.351470
     29          1           0       -4.524949    1.994143    2.036762
     30          1           0       -5.354083    1.327528   -1.387522
     31          1           0       -6.799284    0.402477   -0.886931
     32          1           0       -4.897487   -1.074634   -1.652245
     33          1           0       -5.385148   -1.387927    0.036696
 ---------------------------------------------------------------------

 SCF Done:  E(RM062X) =  -1633.86496196     A.U. after    1 cycles

 The electronic state is 1-A.
 Alpha  occ. eigenvalues --  -90.18277 -89.98098 -19.75534 -19.65701 -19.65468
 Alpha  occ. eigenvalues --  -19.65302 -14.81190 -14.78085 -10.65424 -10.64831
 Alpha  occ. eigenvalues --  -10.60917 -10.60695 -10.60345 -10.60176 -10.59480
 Alpha  occ. eigenvalues --  -10.58770 -10.58378 -10.58370 -10.58275  -8.49114
 Alpha  occ. eigenvalues --   -8.32425  -6.41336  -6.41283  -6.41239  -6.24444
 Alpha  occ. eigenvalues --   -6.24228  -6.23923  -1.28594  -1.25699  -1.17627
 Alpha  occ. eigenvalues --   -1.14504  -1.06239  -1.03715  -1.00683  -0.93578
 Alpha  occ. eigenvalues --   -0.88896  -0.88413  -0.84594  -0.83472  -0.77141
 Alpha  occ. eigenvalues --   -0.75772  -0.74221  -0.70700  -0.67336  -0.67048
 Alpha  occ. eigenvalues --   -0.66039  -0.62921  -0.61658  -0.59970  -0.59703
 Alpha  occ. eigenvalues --   -0.58381  -0.57509  -0.56774  -0.55742  -0.55115
 Alpha  occ. eigenvalues --   -0.53857  -0.53131  -0.52477  -0.50959  -0.50068
 Alpha  occ. eigenvalues --   -0.48849  -0.47977  -0.46152  -0.45258  -0.44452
 Alpha  occ. eigenvalues --   -0.43210  -0.42943  -0.42725  -0.42026  -0.41363
 Alpha  occ. eigenvalues --   -0.40585  -0.39565  -0.39017  -0.38586  -0.37663
 Alpha  occ. eigenvalues --   -0.33957  -0.31032  -0.30611  -0.29018
 Alpha virt. eigenvalues --   -0.00575  -0.00518  -0.00070   0.00874   0.01690
 Alpha virt. eigenvalues --    0.02281   0.02461   0.02776   0.02930   0.03980
 Alpha virt. eigenvalues --    0.04222   0.04713   0.05365   0.05681   0.05805

 Mulliken charges:
               1
     1  C   -0.916651
     2  S    1.846878
     3  O   -0.486791
     4  O   -0.530180
     5  N   -0.920005
     6  H    0.447486
     7  H    0.437870
     8  C   -0.226559
     9  C    0.677253
    10  C   -0.890191
    11  O   -0.214419
    12  C    0.059255
    13  C    0.120707
    14  S    0.488780
    15  H    0.273130
    16  H    0.231137
    17  C   -0.696062
    18  N   -0.422956
    19  C   -0.181879
    20  C   -0.399279
    21  O   -0.339826
    22  C   -0.352620
    23  C   -0.188734
    24  H    0.221314
    25  H    0.234355
    26  H    0.237775
    27  H    0.218490
    28  H    0.209080
    29  H    0.213059
    30  H    0.207744
    31  H    0.211152
    32  H    0.207937
    33  H    0.222749
 Sum of Mulliken charges =  -0.00000

 Dipole moment (field-independent basis, Debye):
    X=             -4.0815    Y=             -4.0295    Z=             -3.2083  Tot=              6.5718
 Quadrupole moment (field-independent basis, Debye-Ang):
   XX=           -155.8796   YY=           -126.6914   ZZ=           -120.6472
   XY=             -3.3902   XZ=            -11.0471   YZ=             -2.3423

  Exact polarizability:     263.775       8.157     161.020       8.770     -12.745     150.439
 Approx polarizability:     259.262       8.419     222.448      13.590     -30.471     205.324

                      1                      2                      3
                      A                      A                      A
 Frequencies --     19.7106                30.4657                43.0731
 Red. masses --      7.3378                 7.0154                 4.9974
 Frc consts  --      0.0017                 0.0038                 0.0055
 IR Inten    --      1.5499                 0.1970                 2.9749

                      4                      5                      6
                      A                      A                      A
 Frequencies --     64.3066                71.5830               105.9535
 Red. masses --      4.5542                 5.2130                 7.1334
 Frc consts  --      0.0111                 0.0157                 0.0472
 IR Inten    --      2.3180                 1.8649                 1.2238

                      7                      8                      9
                      A                      A                      A
 Frequencies --    150.3081               158.9706               210.8929
 Red. masses --      6.3033                 4.8644                 7.3421
 Frc consts  --      0.0839                 0.0724                 0.1924
 IR Inten    --      6.9059                 5.2253                 2.2419

                     10                     11                     12
                      A                      A                      A
 Frequencies --    223.0288               266.3373               271.2140
 Red. masses --      5.5383                 3.0320                 2.1076
 Frc consts  --      0.1623                 0.1267                 0.0913
 IR Inten    --      1.9585                 5.8292                 0.8875

                     13                     14                     15
                      A                      A                      A
 Frequencies --    296.0084               310.4424               325.4763
 Red. masses --      2.3600                 3.3390                 4.7201
 Frc consts  --      0.1218                 0.1896                 0.2946
 IR Inten    --      9.8832                 6.0339                 9.9368

                     16                     17                     18
                      A                      A                      A
 Frequencies --    336.9013               352.4141               375.1854
 Red. masses --      5.5626                 2.3309                 3.1763
 Frc consts  --      0.3720                 0.1706                 0.2634
 IR Inten    --      0.5435                 5.3687                 3.4482

                     19                     20                     21
                      A                      A                      A
 Frequencies --    440.5243               444.8787               467.5323
 Red. masses --      1.9008                 2.6507                 5.3375
 Frc consts  --      0.2173                 0.3091                 0.6874
 IR Inten    --      0.7434                18.3180                 1.3305

                     22                     23                     24
                      A                      A                      A
 Frequencies --    485.0251               498.1878               511.5315
 Red. masses --      8.0311                 2.8132                 6.9301
 Frc consts  --      1.1131                 0.4114                 1.0684
 IR Inten    --     17.8950                 1.1293                14.1814

                     25                     26                     27
                      A                      A                      A
 Frequencies --    526.7311               564.8555               594.6462
 Red. masses --      4.6148                 5.0859                 4.4620
 Frc consts  --      0.7544                 0.9561                 0.9296
 IR Inten    --      3.4027                20.2229                10.5472

                     28                     29                     30
                      A                      A                      A
 Frequencies --    630.3297               643.3932               650.7733
 Red. masses --      2.2038                 5.7173                 3.1873
 Frc consts  --      0.5159                 1.3944                 0.7953
 IR Inten    --     60.7229                13.2699               126.9460

                     31                     32                     33
                      A                      A                      A
 Frequencies --    674.7575               690.7084               700.3871
 Red. masses --      3.4470                 4.5545                 4.2487
 Frc consts  --      0.9247                 1.2802                 1.2279
 IR Inten    --    123.3215               117.0137               260.4744

                     34                     35                     36
                      A                      A                      A
 Frequencies --    813.2284               829.5103               857.2892
 Red. masses --      5.3675                 2.6135                 1.5434
 Frc consts  --      2.0914                 1.0595                 0.6683
 IR Inten    --     49.7614                16.7641                 4.1457

                     37                     38                     39
                      A                      A                      A
 Frequencies --    869.7105               879.4901               883.5587
 Red. masses --      3.5990                 1.5497                 1.4137
 Frc consts  --      1.6039                 0.7063                 0.6502
 IR Inten    --     81.9917                 0.2782                17.1807

                     40                     41                     42
                      A                      A                      A
 Frequencies --    916.0728               941.6889               963.4428
 Red. masses --      2.7942                 2.1170                10.0844
 Frc consts  --      1.3816                 1.1061                 5.5151
 IR Inten    --     32.4512                19.8732                20.6150

                     43                     44                     45
                      A                      A                      A
 Frequencies --   1017.8727              1053.3556              1063.1349
 Red. masses --      1.7481                 2.6264                 2.0774
 Frc consts  --      1.0671                 1.7170                 1.3834
 IR Inten    --      3.4555                29.9805                 9.3586

                     46                     47                     48
                      A                      A                      A
 Frequencies --   1090.9266              1107.3190              1111.7633
 Red. masses --      2.0605                 1.7467                 1.2450
 Frc consts  --      1.4448                 1.2619                 0.9066
 IR Inten    --     19.7488                 1.2837                 1.2332

                     49                     50                     51
                      A                      A                      A
 Frequencies --   1129.4576              1151.7275              1167.2575
 Red. masses --      3.2696                 2.2000                 2.2111
 Frc consts  --      2.4575                 1.7194                 1.7750
 IR Inten    --     26.8439                 1.0676                46.0409

                     52                     53                     54
                      A                      A                      A
 Frequencies --   1180.2410              1195.0522              1202.2714
 Red. masses --      6.6749                 2.6004                 2.9780
 Frc consts  --      5.4782                 2.1881                 2.5362
 IR Inten    --    232.7138                68.2667                82.9134

                     55                     56                     57
                      A                      A                      A
 Frequencies --   1218.7769              1242.2129              1249.1752
 Red. masses --      2.2341                 2.6028                 1.1282
 Frc consts  --      1.9552                 2.3664                 1.0373
 IR Inten    --     11.2265                 6.8798                 3.7909

                     58                     59                     60
                      A                      A                      A
 Frequencies --   1273.1724              1288.2886              1316.6412
 Red. masses --      2.9532                 1.4936                 1.3356
 Frc consts  --      2.8205                 1.4606                 1.3641
 IR Inten    --      5.9078                11.1472                19.2051

                     61                     62                     63
                      A                      A                      A
 Frequencies --   1342.0289              1355.1377              1359.7311
 Red. masses --      1.4348                 1.2535                 8.8835
 Frc consts  --      1.5225                 1.3563                 9.6770
 IR Inten    --     29.3604                 7.4365                52.0803

                     64                     65                     66
                      A                      A                      A
 Frequencies --   1375.3747              1394.5205              1408.5102
 Red. masses --      1.3215                 1.5139                13.9735
 Frc consts  --      1.4728                 1.7346                16.3334
 IR Inten    --     12.2356                94.7796               236.7012

                     67                     68                     69
                      A                      A                      A
 Frequencies --   1417.9849              1430.3440              1449.2678
 Red. masses --      1.4871                 1.4147                 1.6528
 Frc consts  --      1.7617                 1.7053                 2.0454
 IR Inten    --     10.6239                 2.6679                 6.8438

                     70                     71                     72
                      A                      A                      A
 Frequencies --   1498.2193              1499.9905              1506.3226
 Red. masses --      1.1791                 2.4495                 1.3829
 Frc consts  --      1.5594                 3.2472                 1.8487
 IR Inten    --      0.8740                10.8519                13.1179

                     73                     74                     75
                      A                      A                      A
 Frequencies --   1508.8787              1517.8508              1525.0263
 Red. masses --      1.0946                 1.1163                 1.1144
 Frc consts  --      1.4683                 1.5152                 1.5271
 IR Inten    --      1.1896                20.0268                 0.3852

                     76                     77                     78
                      A                      A                      A
 Frequencies --   1532.3045              1614.5106              1619.4792
 Red. masses --      9.1643                 8.2966                 1.1126
 Frc consts  --     12.6777                12.7419                 1.7192
 IR Inten    --     19.7099                88.7159                53.5773

                     79                     80                     81
                      A                      A                      A
 Frequencies --   1651.6054              2973.6504              2974.7644
 Red. masses --      7.4713                 1.0711                 1.0719
 Frc consts  --     12.0076                 5.5802                 5.5889
 IR Inten    --      2.0599                25.4963                26.0712

                     82                     83                     84
                      A                      A                      A
 Frequencies --   2980.5081              3039.5878              3043.5876
 Red. masses --      1.0707                 1.0693                 1.0696
 Frc consts  --      5.6042                 5.8208                 5.8379
 IR Inten    --    127.6643                29.0016                64.1313

                     85                     86                     87
                      A                      A                      A
 Frequencies --   3086.5654              3113.3154              3124.4864
 Red. masses --      1.0890                 1.0906                 1.0900
 Frc consts  --      6.1126                 6.2282                 6.2694
 IR Inten    --     12.3437                31.1187                19.8309

                     88                     89                     90
                      A                      A                      A
 Frequencies --   3154.8533              3156.7539              3258.1329
 Red. masses --      1.0949                 1.0960                 1.0944
 Frc consts  --      6.4205                 6.4346                 6.8448
 IR Inten    --     37.0875                24.1461                 4.2914

                     91                     92                     93
                      A                      A                      A
 Frequencies --   3312.0330              3544.6600              3664.9129
 Red. masses --      1.0984                 1.0466                 1.1007
 Frc consts  --      7.0987                 7.7476                 8.7102
 IR Inten    --      4.0700                47.3504                53.3581

 - Thermochemistry -
 -------------------
 Temperature   298.150 Kelvin.  Pressure   1.00000 Atm.
 Atom     1 has atomic number  6 and mass  12.00000

 Molecular mass:   302.03950 amu.
 Principal axes and moments of inertia in atomic units:
                           1         2         3
     Eigenvalues --  1659.06750********************
           X            0.99999  -0.00153  -0.00302
           Y            0.00150   0.99997  -0.00755
           Z            0.00304   0.00754   0.99997
 This molecule is an asymmetric top.
 Rotational symmetry number  1.
 Warning -- assumption of classical behavior for rotation
           may cause significant error
 Rotational temperatures (Kelvin)      0.05221     0.00542     0.00529
 Rotational constants (GHZ):           1.08780     0.11295     0.11032
 Zero-point vibrational energy     679383.6 (Joules/Mol)
                                  162.37658 (Kcal/Mol)
 Warning -- explicit consideration of  27 degrees of freedom as
           vibrations may cause significant error
 Vibrational temperatures:     28.36    43.83    61.97    92.52   102.99
          (Kelvin)            152.44   216.26   228.72   303.43   320.89
                              383.20   390.22   425.89   446.66   468.29
                              484.73   507.05   539.81   633.82   640.08
                              672.67   697.84   716.78   735.98   757.85
                              812.70   855.56   906.90   925.70   936.32
                              970.83   993.78  1007.70  1170.05  1193.48
                             1233.45  1251.32  1265.39  1271.24  1318.02
                             1354.88  1386.18  1464.49  1515.54  1529.61
                             1569.60  1593.19  1599.58  1625.04  1657.08
                             1679.42  1698.10  1719.41  1729.80  1753.55
                             1787.27  1797.28  1831.81  1853.56  1894.35
                             1930.88  1949.74  1956.35  1978.86  2006.40
                             2026.53  2040.16  2057.95  2085.17  2155.60
                             2158.15  2167.26  2170.94  2183.85  2194.17
                             2204.64  2322.92  2330.07  2376.29  4278.42
                             4280.02  4288.29  4373.29  4379.04  4440.88
                             4479.37  4495.44  4539.13  4541.86  4687.73
                             4765.28  5099.98  5272.99

 Zero-point correction=                           0.258764 (Hartree/Particle)
 Thermal correction to Energy=                    0.275869
 Thermal correction to Enthalpy=                  0.276813
 Thermal correction to Gibbs Free Energy=         0.211583
 Sum of electronic and zero-point Energies=          -1633.606198
 Sum of electronic and thermal Energies=             -1633.589093
 Sum of electronic and thermal Enthalpies=           -1633.588149
 Sum of electronic and thermal Free Energies=        -1633.653379

                     E (Thermal)             CV                S
                      KCal/Mol        Cal/Mol-Kelvin    Cal/Mol-Kelvin
 Total                  173.110             65.443            137.288
 Electronic               0.000              0.000              0.000
 Translational            0.889              2.981             43.013
 Rotational               0.889              2.981             34.427
 Vibrational            171.333             59.481             59.848
 Vibration     1          0.593              1.986              6.663
 Vibration     2          0.594              1.984              5.799
 Vibration     3          0.595              1.980              5.112
 Vibration     4          0.597              1.971              4.320
 Vibration     5          0.598              1.968              4.109
 Vibration     6          0.605              1.944              3.342
 Vibration     7          0.618              1.902              2.668
 Vibration     8          0.621              1.893              2.562
 Vibration     9          0.643              1.824              2.036
 Vibration    10          0.649              1.806              1.934
 Vibration    11          0.672              1.735              1.620
 Vibration    12          0.675              1.726              1.588
 Vibration    13          0.690              1.681              1.439
 Vibration    14          0.699              1.654              1.360
 Vibration    15          0.710              1.625              1.282
 Vibration    16          0.718              1.602              1.227
 Vibration    17          0.729              1.570              1.155
 Vibration    18          0.746              1.523              1.059
 Vibration    19          0.800              1.382              0.825
 Vibration    20          0.804              1.372              0.811
 Vibration    21          0.825              1.322              0.744
 Vibration    22          0.841              1.283              0.697
 Vibration    23          0.854              1.254              0.663
 Vibration    24          0.867              1.224              0.630
 Vibration    25          0.882              1.191              0.595
 Vibration    26          0.921              1.107              0.514
 Vibration    27          0.952              1.043              0.459

                           ! Non-Optimized Parameters !
 Normal termination of Gaussian 16 at Fri May 27 10:24:53 2022.
