 Gaussian 16, Revision C.01,
 Gaussian 16:  ES64L-G16RevC.01  3-Jul-2019

 --------------------------------------------------
 #M062X/gen 6D INT(grid=ultrafine) OPT Freq=noraman
 --------------------------------------------------

 -------------
 HA.21.a1.freq
 -------------
 Symbolic Z-matrix:
 Charge =  0 Multiplicity = 1

 SCF Done:  E(RM062X) =  -1895.89027833     A.U. after   17 cycles
 SCF Done:  E(RM062X) =  -1895.89262043     A.U. after   15 cycles
 SCF Done:  E(RM062X) =  -1895.89287027     A.U. after   14 cycles
 SCF Done:  E(RM062X) =  -1895.89279507     A.U. after   14 cycles
 SCF Done:  E(RM062X) =  -1895.89297601     A.U. after   13 cycles
 SCF Done:  E(RM062X) =  -1895.89300041     A.U. after   13 cycles
 SCF Done:  E(RM062X) =  -1895.89300827     A.U. after   13 cycles
 SCF Done:  E(RM062X) =  -1895.89300921     A.U. after   10 cycles
 SCF Done:  E(RM062X) =  -1895.89300959     A.U. after   10 cycles
 SCF Done:  E(RM062X) =  -1895.89300975     A.U. after   10 cycles
 Optimization completed.
    -- Stationary point found.
 Normal termination of Gaussian 16 at Fri May 27 10:12:29 2022.

 ------------------------------------------------------------------
 #N Geom=AllCheck Guess=TCheck SCRF=Check GenChk RM062X/ChkBas Freq
 ------------------------------------------------------------------

 Structure from the checkpoint file:  "/jobfs/41455115.gadi-pbs/Gau-615231.chk"
 -------------
 HA.21.a1.freq
 -------------
 Charge =  0 Multiplicity = 1

                         Standard orientation:
 ---------------------------------------------------------------------
 Center     Atomic      Atomic             Coordinates (Angstroms)
 Number     Number       Type             X           Y           Z
 ---------------------------------------------------------------------
      1          6           0        1.452292    0.001995   -0.099516
      2         16           0        3.209528   -0.281709   -0.131984
      3          8           0        3.384865   -1.630387   -0.625223
      4          8           0        3.796237    0.894393   -0.740540
      5          7           0        3.729857   -0.291714    1.436399
      6          1           0        3.367637   -1.065037    1.987384
      7          1           0        3.665326    0.610868    1.898999
      8         16           0        0.816148    1.601500   -0.071787
      9          6           0       -0.785503    0.972447    0.001222
     10          6           0       -0.790195   -0.403153   -0.018779
     11          6           0        0.500450   -0.982616   -0.079090
     12          6           0       -1.963065    1.874648    0.036747
     13         16           0       -2.310310   -1.327187    0.053631
     14          8           0       -2.680083   -1.501928    1.455059
     15          8           0       -2.182787   -2.477703   -0.830536
     16          1           0        0.713073   -2.044622   -0.137722
     17          6           0       -3.331023    1.211641    0.094081
     18          6           0       -3.421888   -0.113190   -0.664095
     19          8           0       -1.826912    3.078291    0.044581
     20          1           0       -4.057763    1.927710   -0.297951
     21          1           0       -3.569070    1.040610    1.152086
     22          1           0       -3.152102   -0.024228   -1.720243
     23          1           0       -4.418920   -0.556932   -0.585267
 ---------------------------------------------------------------------

 SCF Done:  E(RM062X) =  -1895.89300975     A.U. after    1 cycles

 The electronic state is 1-A.
 Alpha  occ. eigenvalues --  -90.20205 -90.17567 -90.02105 -19.68769 -19.67294
 Alpha  occ. eigenvalues --  -19.67212 -19.66870 -19.66724 -14.82910 -10.69791
 Alpha  occ. eigenvalues --  -10.65404 -10.64839 -10.63889 -10.62773 -10.62418
 Alpha  occ. eigenvalues --  -10.61067  -8.51031  -8.48930  -8.36400  -6.43243
 Alpha  occ. eigenvalues --   -6.43196  -6.43162  -6.41074  -6.41063  -6.41001
 Alpha  occ. eigenvalues --   -6.28382  -6.28153  -6.27951  -1.27885  -1.26052
 Alpha  occ. eigenvalues --   -1.21951  -1.16488  -1.15149  -1.05955  -1.05242
 Alpha  occ. eigenvalues --   -0.97096  -0.90552  -0.90300  -0.84580  -0.80294
 Alpha  occ. eigenvalues --   -0.75607  -0.72837  -0.69396  -0.65865  -0.64852
 Alpha  occ. eigenvalues --   -0.63673  -0.61568  -0.60362  -0.59516  -0.58780
 Alpha  occ. eigenvalues --   -0.56811  -0.56046  -0.55249  -0.54718  -0.53421
 Alpha  occ. eigenvalues --   -0.51235  -0.50927  -0.50410  -0.47554  -0.46866
 Alpha  occ. eigenvalues --   -0.44747  -0.43649  -0.43040  -0.42896  -0.41827
 Alpha  occ. eigenvalues --   -0.41384  -0.40851  -0.40570  -0.38360  -0.37316
 Alpha  occ. eigenvalues --   -0.36200  -0.34991
 Alpha virt. eigenvalues --   -0.09035  -0.01396  -0.01091  -0.00327   0.01095
 Alpha virt. eigenvalues --    0.01681   0.01954   0.02740   0.03307   0.03551
 Alpha virt. eigenvalues --    0.03716   0.04694   0.05466   0.05686   0.05792

 Mulliken charges:
               1
     1  C   -1.217112
     2  S    1.770989
     3  O   -0.506019
     4  O   -0.502338
     5  N   -0.899792
     6  H    0.445533
     7  H    0.448618
     8  S    0.408670
     9  C   -0.186970
    10  C   -1.068235
    11  C    0.594447
    12  C    0.344638
    13  S    1.394072
    14  O   -0.442549
    15  O   -0.466315
    16  H    0.300145
    17  C   -0.576314
    18  C   -0.627921
    19  O   -0.393966
    20  H    0.275853
    21  H    0.306164
    22  H    0.298997
    23  H    0.299409
 Sum of Mulliken charges =   0.00000

 Dipole moment (field-independent basis, Debye):
    X=             -2.8858    Y=              2.0902    Z=              2.2922  Tot=              4.2368
 Quadrupole moment (field-independent basis, Debye-Ang):
   XX=           -116.7110   YY=           -133.5684   ZZ=           -111.9374
   XY=             -5.5887   XZ=             19.6183   YZ=             -0.7408

  Exact polarizability:     195.102      -4.030     162.038       2.155       0.573     106.979
 Approx polarizability:     210.204       0.005     236.121      -3.242       2.092     150.072

                      1                      2                      3
                      A                      A                      A
 Frequencies --     35.3477                49.3689                75.3586
 Red. masses --      7.1516                 5.4934                 9.5649
 Frc consts  --      0.0053                 0.0079                 0.0320
 IR Inten    --      5.4826                 4.9112                11.3538

                      4                      5                      6
                      A                      A                      A
 Frequencies --     94.9399               117.9824               153.5398
 Red. masses --     11.7642                11.1828                 6.1586
 Frc consts  --      0.0625                 0.0917                 0.0855
 IR Inten    --      1.3268                 0.0585                 3.5212

                      7                      8                      9
                      A                      A                      A
 Frequencies --    188.4390               205.5978               225.9870
 Red. masses --      3.9827                 7.9593                 6.9853
 Frc consts  --      0.0833                 0.1982                 0.2102
 IR Inten    --      5.7776                 4.9253                 0.8259

                     10                     11                     12
                      A                      A                      A
 Frequencies --    268.3679               291.3779               300.9358
 Red. masses --      4.3062                 2.3800                 3.4045
 Frc consts  --      0.1827                 0.1191                 0.1817
 IR Inten    --      1.3830                 4.5503                13.4098

                     13                     14                     15
                      A                      A                      A
 Frequencies --    303.3645               342.1216               385.0045
 Red. masses --      6.2264                 7.4855                 5.1278
 Frc consts  --      0.3376                 0.5162                 0.4478
 IR Inten    --      3.4050                12.3606                 5.3567

                     16                     17                     18
                      A                      A                      A
 Frequencies --    393.7969               445.4585               453.5338
 Red. masses --      5.4298                 4.6457                 5.1217
 Frc consts  --      0.4961                 0.5431                 0.6207
 IR Inten    --      2.7269                52.4120                16.2731

                     19                     20                     21
                      A                      A                      A
 Frequencies --    461.7392               473.5568               535.8076
 Red. masses --      2.7377                 6.2854                 5.1595
 Frc consts  --      0.3439                 0.8305                 0.8727
 IR Inten    --     16.3747                13.6159                37.8969

                     22                     23                     24
                      A                      A                      A
 Frequencies --    547.9926               552.8047               568.8285
 Red. masses --      3.7508                 4.0539                 6.8410
 Frc consts  --      0.6636                 0.7299                 1.3042
 IR Inten    --     49.0749                22.5505                21.7374

                     25                     26                     27
                      A                      A                      A
 Frequencies --    599.8099               633.4374               656.6953
 Red. masses --      2.9306                 3.8296                 4.6234
 Frc consts  --      0.6212                 0.9053                 1.1747
 IR Inten    --     33.2025               289.7235               218.1968

                     28                     29                     30
                      A                      A                      A
 Frequencies --    701.0974               728.6542               755.1964
 Red. masses --      5.1385                 8.0014                 4.0720
 Frc consts  --      1.4881                 2.5030                 1.3683
 IR Inten    --     35.8941                24.8625                58.7095

                     31                     32                     33
                      A                      A                      A
 Frequencies --    842.3830               878.6001               903.5727
 Red. masses --      2.6861                 4.1600                 1.3894
 Frc consts  --      1.1230                 1.8920                 0.6683
 IR Inten    --     21.3830                67.5401                 4.9432

                     34                     35                     36
                      A                      A                      A
 Frequencies --    925.2642               977.5606              1010.7973
 Red. masses --      5.6943                 1.9495                 2.8681
 Frc consts  --      2.8722                 1.0977                 1.7265
 IR Inten    --    130.4029                 1.8512                 1.7745

                     37                     38                     39
                      A                      A                      A
 Frequencies --   1060.6065              1068.8962              1101.8709
 Red. masses --      4.3460                 2.7667                 1.2695
 Frc consts  --      2.8803                 1.8625                 0.9081
 IR Inten    --     83.1538                 8.3805                 3.4370

                     40                     41                     42
                      A                      A                      A
 Frequencies --   1145.7607              1169.7479              1178.5935
 Red. masses --      3.7142                 1.3696                 3.2079
 Frc consts  --      2.8728                 1.1041                 2.6254
 IR Inten    --    124.0385                50.2016               196.3078

                     43                     44                     45
                      A                      A                      A
 Frequencies --   1188.3190              1225.5259              1309.5579
 Red. masses --      3.1855                 1.5772                 3.2179
 Frc consts  --      2.6503                 1.3956                 3.2514
 IR Inten    --     97.7922                63.5887                91.7830

                     46                     47                     48
                      A                      A                      A
 Frequencies --   1326.7946              1355.9053              1373.0104
 Red. masses --      1.9308                 3.2033                 2.0724
 Frc consts  --      2.0026                 3.4698                 2.3019
 IR Inten    --     63.4811               106.9004                67.7593

                     49                     50                     51
                      A                      A                      A
 Frequencies --   1393.0314              1416.2027              1471.5758
 Red. masses --      5.5808                14.4571                 1.0787
 Frc consts  --      6.3807                17.0837                 1.3763
 IR Inten    --      8.4195               203.2108                 9.4606

                     52                     53                     54
                      A                      A                      A
 Frequencies --   1475.1197              1501.8172              1596.9655
 Red. masses --      1.0968                 8.2422                 8.4218
 Frc consts  --      1.4061                10.9528                12.6545
 IR Inten    --     16.2122                36.3833                34.3323

                     55                     56                     57
                      A                      A                      A
 Frequencies --   1615.3728              1840.4720              3091.1444
 Red. masses --      1.1145                12.5169                 1.0654
 Frc consts  --      1.7134                24.9807                 5.9981
 IR Inten    --     57.7773               261.0309                 2.4777

                     58                     59                     60
                      A                      A                      A
 Frequencies --   3116.9881              3160.9569              3179.7534
 Red. masses --      1.0591                 1.0988                 1.1083
 Frc consts  --      6.0628                 6.4683                 6.6024
 IR Inten    --      0.7163                 1.1163                 0.1211

                     61                     62                     63
                      A                      A                      A
 Frequencies --   3271.7585              3547.5084              3669.8293
 Red. masses --      1.0957                 1.0464                 1.1016
 Frc consts  --      6.9105                 7.7590                 8.7411
 IR Inten    --     12.6704                56.2050                54.9700

 - Thermochemistry -
 -------------------
 Temperature   298.150 Kelvin.  Pressure   1.00000 Atm.
 Atom     1 has atomic number  6 and mass  12.00000

 Molecular mass:   280.94864 amu.
 Principal axes and moments of inertia in atomic units:
                           1         2         3
     Eigenvalues --  2450.626316890.852708574.09302
           X            0.99990  -0.00934   0.01072
           Y            0.00933   0.99996   0.00040
           Z           -0.01072  -0.00030   0.99994
 This molecule is an asymmetric top.
 Rotational symmetry number  1.
 Warning -- assumption of classical behavior for rotation
           may cause significant error
 Rotational temperatures (Kelvin)      0.03534     0.01257     0.01010
 Rotational constants (GHZ):           0.73644     0.26190     0.21049
 Zero-point vibrational energy     400374.6 (Joules/Mol)
                                   95.69182 (Kcal/Mol)
 Warning -- explicit consideration of  25 degrees of freedom as
           vibrations may cause significant error
 Vibrational temperatures:     50.86    71.03   108.42   136.60   169.75
          (Kelvin)            220.91   271.12   295.81   325.14   386.12
                              419.23   432.98   436.47   492.24   553.94
                              566.59   640.92   652.53   664.34   681.34
                              770.91   788.44   795.36   818.42   862.99
                              911.38   944.84  1008.72  1048.37  1086.56
                             1212.00  1264.11  1300.04  1331.25  1406.49
                             1454.31  1525.98  1537.90  1585.35  1648.49
                             1683.01  1695.73  1709.73  1763.26  1884.16
                             1908.96  1950.85  1975.46  2004.26  2037.60
                             2117.27  2122.37  2160.78  2297.68  2324.16
                             2648.03  4447.47  4484.65  4547.91  4574.96
                             4707.33  5104.07  5280.07

 Zero-point correction=                           0.152495 (Hartree/Particle)
 Thermal correction to Energy=                    0.167358
 Thermal correction to Enthalpy=                  0.168303
 Thermal correction to Gibbs Free Energy=         0.109475
 Sum of electronic and zero-point Energies=          -1895.740515
 Sum of electronic and thermal Energies=             -1895.725651
 Sum of electronic and thermal Enthalpies=           -1895.724707
 Sum of electronic and thermal Free Energies=        -1895.783535

                     E (Thermal)             CV                S
                      KCal/Mol        Cal/Mol-Kelvin    Cal/Mol-Kelvin
 Total                  105.019             55.576            123.813
 Electronic               0.000              0.000              0.000
 Translational            0.889              2.981             42.797
 Rotational               0.889              2.981             33.337
 Vibrational            103.242             49.615             47.679
 Vibration     1          0.594              1.982              5.504
 Vibration     2          0.595              1.978              4.843
 Vibration     3          0.599              1.965              4.008
 Vibration     4          0.603              1.953              3.556
 Vibration     5          0.608              1.934              3.133
 Vibration     6          0.619              1.899              2.628
 Vibration     7          0.633              1.856              2.243
 Vibration     8          0.640              1.832              2.082
 Vibration     9          0.650              1.801              1.911
 Vibration    10          0.673              1.731              1.607
 Vibration    11          0.687              1.690              1.466
 Vibration    12          0.693              1.672              1.412
 Vibration    13          0.695              1.667              1.398
 Vibration    14          0.721              1.591              1.202
 Vibration    15          0.754              1.502              1.019
 Vibration    16          0.761              1.483              0.986
 Vibration    17          0.805              1.371              0.810
 Vibration    18          0.812              1.353              0.785
 Vibration    19          0.819              1.335              0.761
 Vibration    20          0.830              1.309              0.728
 Vibration    21          0.891              1.171              0.574
 Vibration    22          0.903              1.144              0.548
 Vibration    23          0.908              1.134              0.538
 Vibration    24          0.925              1.099              0.506
 Vibration    25          0.958              1.032              0.450

                           ! Non-Optimized Parameters !
 Normal termination of Gaussian 16 at Fri May 27 10:21:59 2022.
