 Gaussian 16, Revision C.01,
 Gaussian 16:  ES64L-G16RevC.01  3-Jul-2019

 --------------------------------------------------
 #M062X/gen 6D INT(grid=ultrafine) OPT Freq=noraman
 --------------------------------------------------

 ----------
 HA.29.freq
 ----------
 Symbolic Z-matrix:
 Charge =  0 Multiplicity = 1

 SCF Done:  E(RM062X) =  -1867.16473629     A.U. after   17 cycles
 SCF Done:  E(RM062X) =  -1867.16648172     A.U. after   15 cycles
 SCF Done:  E(RM062X) =  -1867.16550809     A.U. after   16 cycles
 SCF Done:  E(RM062X) =  -1867.16735030     A.U. after   14 cycles
 SCF Done:  E(RM062X) =  -1867.16748964     A.U. after   14 cycles
 SCF Done:  E(RM062X) =  -1867.16753288     A.U. after   13 cycles
 SCF Done:  E(RM062X) =  -1867.16755411     A.U. after   13 cycles
 SCF Done:  E(RM062X) =  -1867.16756515     A.U. after   12 cycles
 SCF Done:  E(RM062X) =  -1867.16756790     A.U. after   11 cycles
 SCF Done:  E(RM062X) =  -1867.16756851     A.U. after   10 cycles
 SCF Done:  E(RM062X) =  -1867.16756890     A.U. after   10 cycles
 Optimization completed.
    -- Stationary point found.
 Normal termination of Gaussian 16 at Wed Jun 29 23:40:15 2022.

 ------------------------------------------------------------------
 #N Geom=AllCheck Guess=TCheck SCRF=Check GenChk RM062X/ChkBas Freq
 ------------------------------------------------------------------

 Structure from the checkpoint file:  "/jobfs/48845565.gadi-pbs/Gau-2287317.chk"
 ----------
 HA.29.freq
 ----------
 Charge =  0 Multiplicity = 1

                         Standard orientation:
 ---------------------------------------------------------------------
 Center     Atomic      Atomic             Coordinates (Angstroms)
 Number     Number       Type             X           Y           Z
 ---------------------------------------------------------------------
      1          6           0       -2.576885   -0.226696   -0.063980
      2          6           0       -2.749787    1.165124   -0.063883
      3         17           0       -4.333949    1.884479   -0.033951
      4          6           0       -1.662865    2.022712   -0.102003
      5          1           0       -1.824954    3.096285   -0.103618
      6          6           0       -0.363710    1.495562   -0.134180
      7          6           0       -0.184416    0.102509   -0.156659
      8          6           0        1.180500   -0.476248   -0.316565
      9          6           0       -1.286712   -0.742939   -0.124397
     10          1           0       -1.132133   -1.817959   -0.153825
     11         16           0       -3.935075   -1.389088    0.052671
     12          8           0       -3.340150   -2.707250   -0.062758
     13          8           0       -4.761188   -1.004721    1.179471
     14          7           0       -4.877750   -1.198940   -1.300806
     15          1           0       -4.381733   -1.428054   -2.158339
     16          1           0       -5.344325   -0.296069   -1.336500
     17          7           0        0.752606    2.300636   -0.206689
     18          6           0        1.991608    1.773240    0.354252
     19          7           0        2.212341    0.421699   -0.168008
     20          6           0        2.009710    1.796429    1.883481
     21          1           0        0.597408    3.282337   -0.009420
     22          1           0        2.805957    2.393543   -0.029386
     23          1           0        2.957553    1.391499    2.252365
     24          1           0        1.186955    1.195195    2.284782
     25          8           0        1.357183   -1.648570   -0.601726
     26          6           0        3.573231   -0.013301   -0.285216
     27          6           0        4.109409   -0.977098    0.581550
     28          6           0        3.291149   -1.661057    1.643017
     29          6           0        5.458857   -1.311735    0.415924
     30          1           0        5.893055   -2.057517    1.077438
     31          6           0        6.249705   -0.715986   -0.561055
     32          1           0        7.293561   -0.999007   -0.658658
     33          6           0        5.699123    0.241080   -1.412221
     34          1           0        6.302698    0.706632   -2.185143
     35          6           0        4.359759    0.584632   -1.272228
     36          1           0        3.899876    1.310083   -1.938962
     37          1           0        1.907408    2.823193    2.250198
     38          1           0        3.931285   -1.992202    2.465279
     39          1           0        2.779056   -2.531182    1.220221
     40          1           0        2.517453   -1.004289    2.051603
 ---------------------------------------------------------------------

 SCF Done:  E(RM062X) =  -1867.16756890     A.U. after    1 cycles

 The electronic state is 1-A.
 Alpha  occ. eigenvalues -- -102.70030 -90.17096 -19.64445 -19.64294 -19.62756
 Alpha  occ. eigenvalues --  -14.81792 -14.81581 -14.80249 -10.67511 -10.66071
 Alpha  occ. eigenvalues --  -10.65919 -10.64260 -10.60598 -10.60565 -10.59484
 Alpha  occ. eigenvalues --  -10.59467 -10.58747 -10.57718 -10.56967 -10.56891
 Alpha  occ. eigenvalues --  -10.56654 -10.56578 -10.56368 -10.54737  -9.84672
 Alpha  occ. eigenvalues --   -8.47977  -7.57080  -7.56418  -7.56376  -6.40195
 Alpha  occ. eigenvalues --   -6.40144  -6.40077  -1.24921  -1.18289  -1.13434
 Alpha  occ. eigenvalues --   -1.11860  -1.05834  -1.03163  -1.02183  -0.97142
 Alpha  occ. eigenvalues --   -0.96709  -0.90389  -0.88585  -0.88042  -0.86410
 Alpha  occ. eigenvalues --   -0.84544  -0.79145  -0.77848  -0.75508  -0.74791
 Alpha  occ. eigenvalues --   -0.72286  -0.70193  -0.68883  -0.65900  -0.64435
 Alpha  occ. eigenvalues --   -0.63966  -0.62127  -0.61193  -0.58870  -0.57773
 Alpha  occ. eigenvalues --   -0.57311  -0.56449  -0.55866  -0.54895  -0.54149
 Alpha  occ. eigenvalues --   -0.53809  -0.52439  -0.52014  -0.51187  -0.50608
 Alpha  occ. eigenvalues --   -0.50319  -0.49305  -0.48924  -0.48671  -0.48190
 Alpha  occ. eigenvalues --   -0.46438  -0.45912  -0.44998  -0.44334  -0.43467
 Alpha  occ. eigenvalues --   -0.42484  -0.42185  -0.41655  -0.41070  -0.40456
 Alpha  occ. eigenvalues --   -0.39981  -0.38441  -0.38037  -0.37344  -0.34917
 Alpha  occ. eigenvalues --   -0.34470  -0.33162  -0.31161  -0.30635  -0.29107
 Alpha virt. eigenvalues --   -0.03882  -0.01518  -0.01356   0.00222   0.00747
 Alpha virt. eigenvalues --    0.01086   0.01168   0.01554   0.02249   0.02503
 Alpha virt. eigenvalues --    0.03057   0.03353   0.03995   0.04326   0.04702

 Mulliken charges:
               1
     1  C   -2.334235
     2  C    1.161693
     3  Cl   0.239732
     4  C   -0.916134
     5  H    0.228622
     6  C   -0.082285
     7  C    1.144883
     8  C    0.574890
     9  C   -0.326386
    10  H    0.314174
    11  S    1.388456
    12  O   -0.563000
    13  O   -0.418533
    14  N   -0.931053
    15  H    0.444956
    16  H    0.443280
    17  N   -0.393625
    18  C   -0.166323
    19  N   -0.235899
    20  C   -0.624257
    21  H    0.434291
    22  H    0.237543
    23  H    0.255616
    24  H    0.253779
    25  O   -0.440415
    26  C   -0.339138
    27  C    0.431206
    28  C   -0.733742
    29  C   -0.351018
    30  H    0.206546
    31  C   -0.167189
    32  H    0.210361
    33  C   -0.336444
    34  H    0.211937
    35  C   -0.010578
    36  H    0.220058
    37  H    0.222953
    38  H    0.215220
    39  H    0.287604
    40  H    0.242452
 Sum of Mulliken charges =   0.00000

 Dipole moment (field-independent basis, Debye):
    X=              5.0157    Y=              7.6536    Z=             -1.2607  Tot=              9.2371
 Quadrupole moment (field-independent basis, Debye-Ang):
   XX=           -157.1907   YY=           -154.9127   ZZ=           -151.9810
   XY=             -9.9345   XZ=             18.3810   YZ=             -0.5059

  Exact polarizability:     346.734      -4.782     226.643      -6.405      -9.239     172.639
 Approx polarizability:     361.771      -8.148     314.211     -13.584     -16.636     232.950

                      1                      2                      3
                      A                      A                      A
 Frequencies --     26.0149                37.0126                57.1931
 Red. masses --      6.4947                 5.5783                 5.8917
 Frc consts  --      0.0026                 0.0045                 0.0114
 IR Inten    --      1.1557                 1.3393                 1.4153

                      4                      5                      6
                      A                      A                      A
 Frequencies --     63.5978                87.4137                91.6783
 Red. masses --      6.5989                 4.7031                 4.2262
 Frc consts  --      0.0157                 0.0212                 0.0209
 IR Inten    --      2.6039                 0.8047                 1.5944

                      7                      8                      9
                      A                      A                      A
 Frequencies --    121.7245               133.0993               140.7351
 Red. masses --      5.1630                 6.2188                 3.2210
 Frc consts  --      0.0451                 0.0649                 0.0376
 IR Inten    --      1.4033                 4.1960                 0.3289

                     10                     11                     12
                      A                      A                      A
 Frequencies --    181.4122               183.2102               200.9185
 Red. masses --      1.5507                 4.4703                 5.3930
 Frc consts  --      0.0301                 0.0884                 0.1283
 IR Inten    --      0.3677                 1.0435                 0.3862

                     13                     14                     15
                      A                      A                      A
 Frequencies --    207.6658               213.6834               243.1875
 Red. masses --      4.6138                 4.8093                 4.6843
 Frc consts  --      0.1172                 0.1294                 0.1632
 IR Inten    --      9.2519                 1.6747                 1.2469

                     16                     17                     18
                      A                      A                      A
 Frequencies --    264.0953               280.1273               285.5398
 Red. masses --      3.2723                 5.2466                 3.4961
 Frc consts  --      0.1345                 0.2426                 0.1679
 IR Inten    --     13.0342                 2.7079                 8.3661

                     19                     20                     21
                      A                      A                      A
 Frequencies --    303.2784               307.8673               322.5523
 Red. masses --      1.3440                 1.8774                 3.0582
 Frc consts  --      0.0728                 0.1048                 0.1875
 IR Inten    --      2.7893                 3.6128                 6.2709

                     22                     23                     24
                      A                      A                      A
 Frequencies --    351.0599               387.0102               414.3492
 Red. masses --      4.6074                 6.2660                 3.4944
 Frc consts  --      0.3346                 0.5530                 0.3535
 IR Inten    --      1.5710                 6.1157                 5.7628

                     25                     26                     27
                      A                      A                      A
 Frequencies --    432.5103               449.2664               450.3560
 Red. masses --      2.8577                 2.5602                 3.4192
 Frc consts  --      0.3150                 0.3045                 0.4086
 IR Inten    --      3.0606                19.2191                 1.7388

                     28                     29                     30
                      A                      A                      A
 Frequencies --    469.8660               492.3887               502.9235
 Red. masses --      2.9798                 3.8073                 5.3073
 Frc consts  --      0.3876                 0.5439                 0.7909
 IR Inten    --      7.0892                 8.3662                38.7125

                     31                     32                     33
                      A                      A                      A
 Frequencies --    515.1498               530.5425               548.7181
 Red. masses --      4.7307                 4.4461                 3.8194
 Frc consts  --      0.7397                 0.7373                 0.6775
 IR Inten    --     23.7791                52.9504                76.3202

                     34                     35                     36
                      A                      A                      A
 Frequencies --    556.8209               561.7110               572.1795
 Red. masses --      4.3311                 4.1081                 4.8509
 Frc consts  --      0.7912                 0.7637                 0.9357
 IR Inten    --     20.0285                 2.0514                 1.6421

                     37                     38                     39
                      A                      A                      A
 Frequencies --    609.1845               630.1661               646.7297
 Red. masses --      3.1424                 3.2273                 7.5813
 Frc consts  --      0.6871                 0.7551                 1.8683
 IR Inten    --     30.4697               177.6310                 3.4161

                     40                     41                     42
                      A                      A                      A
 Frequencies --    657.5633               702.3290               708.0558
 Red. masses --      4.2113                 4.2638                 3.6381
 Frc consts  --      1.0729                 1.2392                 1.0746
 IR Inten    --     91.5807                34.1714               337.6458

                     43                     44                     45
                      A                      A                      A
 Frequencies --    726.9156               741.7602               770.8487
 Red. masses --      5.3054                 2.5499                 2.9668
 Frc consts  --      1.6517                 0.8266                 1.0387
 IR Inten    --      7.2930                 6.7558                19.2958

                     46                     47                     48
                      A                      A                      A
 Frequencies --    785.5906               792.4740               817.8022
 Red. masses --      1.7192                 6.1377                 4.1992
 Frc consts  --      0.6251                 2.2711                 1.6547
 IR Inten    --     42.6536                14.1082                 1.8419

                     49                     50                     51
                      A                      A                      A
 Frequencies --    864.2725               869.8263               888.9162
 Red. masses --      3.6646                 1.5715                 1.9216
 Frc consts  --      1.6128                 0.7005                 0.8946
 IR Inten    --     22.1543                34.4959                 5.0715

                     52                     53                     54
                      A                      A                      A
 Frequencies --    896.6478               948.7156               971.4685
 Red. masses --      1.8640                 2.7279                 3.7258
 Frc consts  --      0.8830                 1.4466                 2.0717
 IR Inten    --      1.8239                14.9242                94.8791

                     55                     56                     57
                      A                      A                      A
 Frequencies --    978.5624               990.1557              1014.9252
 Red. masses --      1.5764                 1.3631                 1.3799
 Frc consts  --      0.8894                 0.7874                 0.8375
 IR Inten    --     18.3115                 6.9979                 0.1233

                     58                     59                     60
                      A                      A                      A
 Frequencies --   1015.2941              1034.4138              1068.4188
 Red. masses --      1.4523                 2.0440                 1.5447
 Frc consts  --      0.8821                 1.2886                 1.0389
 IR Inten    --      1.0915                23.1172                 3.5779

                     61                     62                     63
                      A                      A                      A
 Frequencies --   1086.5046              1091.5674              1114.5376
 Red. masses --      2.0343                 2.9290                 1.2571
 Frc consts  --      1.4149                 2.0562                 0.9200
 IR Inten    --      2.5782                18.9095                 2.3480

                     64                     65                     66
                      A                      A                      A
 Frequencies --   1132.2650              1140.9292              1150.2912
 Red. masses --      2.2316                 2.1435                 2.6133
 Frc consts  --      1.6856                 1.6440                 2.0373
 IR Inten    --      7.3054                25.5731                43.6727

                     67                     68                     69
                      A                      A                      A
 Frequencies --   1155.1308              1182.9125              1187.0571
 Red. masses --      1.8411                 4.9517                 1.1188
 Frc consts  --      1.4474                 4.0823                 0.9288
 IR Inten    --      9.2172               252.5722                 0.3560

                     70                     71                     72
                      A                      A                      A
 Frequencies --   1226.3367              1249.0415              1262.6578
 Red. masses --      2.7805                 3.4656                 1.2845
 Frc consts  --      2.4638                 3.1856                 1.2066
 IR Inten    --     21.3734                59.4567                66.6155

                     73                     74                     75
                      A                      A                      A
 Frequencies --   1286.6445              1303.9047              1316.4837
 Red. masses --      4.2655                 2.9672                 1.6386
 Frc consts  --      4.1604                 2.9722                 1.6732
 IR Inten    --     34.3418                22.5334                 9.9722

                     76                     77                     78
                      A                      A                      A
 Frequencies --   1333.8326              1342.6500              1353.5362
 Red. masses --      2.6148                 4.4261                 4.0548
 Frc consts  --      2.7409                 4.7011                 4.3768
 IR Inten    --     14.0975                 6.4843                70.1620

                     79                     80                     81
                      A                      A                      A
 Frequencies --   1390.6542              1395.8874              1413.6791
 Red. masses --      1.8125                 3.7085                 3.4059
 Frc consts  --      2.0652                 4.2574                 4.0104
 IR Inten    --     79.4658               134.9919                61.6891

                     82                     83                     84
                      A                      A                      A
 Frequencies --   1425.8769              1432.5677              1475.6219
 Red. masses --      1.2874                 1.2533                 1.8897
 Frc consts  --      1.5422                 1.5154                 2.4243
 IR Inten    --     23.7446                 8.0276               185.1942

                     85                     86                     87
                      A                      A                      A
 Frequencies --   1491.2348              1506.8444              1510.7062
 Red. masses --      1.4118                 1.1969                 1.1411
 Frc consts  --      1.8498                 1.6012                 1.5344
 IR Inten    --      6.5891                21.7332                12.0327

                     88                     89                     90
                      A                      A                      A
 Frequencies --   1514.6918              1520.2396              1527.2620
 Red. masses --      1.3042                 1.5340                 1.9202
 Frc consts  --      1.7629                 2.0888                 2.6388
 IR Inten    --     90.3317                31.5776                 6.5829

                     91                     92                     93
                      A                      A                      A
 Frequencies --   1551.6997              1554.5538              1618.7337
 Red. masses --      2.8211                 2.9253                 1.1119
 Frc consts  --      4.0020                 4.1651                 1.7165
 IR Inten    --     24.8553               249.4927                53.7186

                     94                     95                     96
                      A                      A                      A
 Frequencies --   1650.5892              1662.9296              1685.7601
 Red. masses --      6.9843                 6.4724                 7.0238
 Frc consts  --     11.2112                10.5455                11.7601
 IR Inten    --     24.5586                 5.1091               436.0685

                     97                     98                     99
                      A                      A                      A
 Frequencies --   1691.5925              1800.6075              3077.7867
 Red. masses --      6.5358                12.5003                 1.0349
 Frc consts  --     11.0190                23.8786                 5.7762
 IR Inten    --      3.7319               304.1457                 9.4714

                    100                    101                    102
                      A                      A                      A
 Frequencies --   3089.4527              3127.8070              3156.8393
 Red. masses --      1.0357                 1.0885                 1.1027
 Frc consts  --      5.8241                 6.2741                 6.4745
 IR Inten    --     16.1310                10.8952                21.2345

                    103                    104                    105
                      A                      A                      A
 Frequencies --   3159.4868              3165.9167              3166.3833
 Red. masses --      1.1005                 1.1034                 1.1028
 Frc consts  --      6.4723                 6.5159                 6.5143
 IR Inten    --      4.1091                21.4528                14.9803

                    106                    107                    108
                      A                      A                      A
 Frequencies --   3210.4631              3214.8333              3228.6395
 Red. masses --      1.0874                 1.0902                 1.0927
 Frc consts  --      6.6037                 6.6386                 6.7110
 IR Inten    --      7.0543                 2.1109                14.7606

                    109                    110                    111
                      A                      A                      A
 Frequencies --   3232.7654              3242.8198              3249.4566
 Red. masses --      1.0923                 1.0979                 1.0912
 Frc consts  --      6.7255                 6.8023                 6.7888
 IR Inten    --      0.8794                16.2023                14.1461

                    112                    113                    114
                      A                      A                      A
 Frequencies --   3540.3482              3618.4500              3659.3721
 Red. masses --      1.0466                 1.0768                 1.1002
 Frc consts  --      7.7291                 8.3064                 8.6805
 IR Inten    --     38.6391                31.5413                47.8099

 - Thermochemistry -
 -------------------
 Temperature   298.150 Kelvin.  Pressure   1.00000 Atm.
 Atom     1 has atomic number  6 and mass  12.00000

 Molecular mass:   365.06009 amu.
 Principal axes and moments of inertia in atomic units:
                           1         2         3
     Eigenvalues --  3592.96337********************
           X            0.99998   0.00127   0.00657
           Y           -0.00127   1.00000  -0.00006
           Z           -0.00657   0.00005   0.99998
 This molecule is an asymmetric top.
 Rotational symmetry number  1.
 Warning -- assumption of classical behavior for rotation
           may cause significant error
 Rotational temperatures (Kelvin)      0.02411     0.00497     0.00447
 Rotational constants (GHZ):           0.50230     0.10365     0.09320
 Zero-point vibrational energy     813441.1 (Joules/Mol)
                                  194.41709 (Kcal/Mol)
 Warning -- explicit consideration of  37 degrees of freedom as
           vibrations may cause significant error
 Vibrational temperatures:     37.43    53.25    82.29    91.50   125.77
          (Kelvin)            131.90   175.13   191.50   202.49   261.01
                              263.60   289.08   298.78   307.44   349.89
                              379.97   403.04   410.83   436.35   442.95
                              464.08   505.10   556.82   596.16   622.29
                              646.39   647.96   676.03   708.44   723.59
                              741.19   763.33   789.48   801.14   808.18
                              823.24   876.48   906.67   930.50   946.09
                             1010.49  1018.73  1045.87  1067.23  1109.08
                             1130.29  1140.19  1176.64  1243.50  1251.49
                             1278.95  1290.08  1364.99  1397.73  1407.93
                             1424.61  1460.25  1460.78  1488.29  1537.22
                             1563.24  1570.52  1603.57  1629.08  1641.54
                             1655.01  1661.98  1701.95  1707.91  1764.43
                             1797.09  1816.68  1851.19  1876.03  1894.13
                             1919.09  1931.77  1947.44  2000.84  2008.37
                             2033.97  2051.52  2061.15  2123.09  2145.55
                             2168.01  2173.57  2179.30  2187.29  2197.39
                             2232.55  2236.66  2329.00  2374.83  2392.58
                             2425.43  2433.82  2590.67  4428.25  4445.03
                             4500.22  4541.99  4545.80  4555.05  4555.72
                             4619.14  4625.43  4645.29  4651.23  4665.69
                             4675.24  5093.77  5206.14  5265.02

 Zero-point correction=                           0.309823 (Hartree/Particle)
 Thermal correction to Energy=                    0.331320
 Thermal correction to Enthalpy=                  0.332264
 Thermal correction to Gibbs Free Energy=         0.259259
 Sum of electronic and zero-point Energies=          -1866.857746
 Sum of electronic and thermal Energies=             -1866.836249
 Sum of electronic and thermal Enthalpies=           -1866.835305
 Sum of electronic and thermal Free Energies=        -1866.908310

                     E (Thermal)             CV                S
                      KCal/Mol        Cal/Mol-Kelvin    Cal/Mol-Kelvin
 Total                  207.906             83.748            153.653
 Electronic               0.000              0.000              0.000
 Translational            0.889              2.981             43.578
 Rotational               0.889              2.981             35.448
 Vibrational            206.129             77.786             74.627
 Vibration     1          0.593              1.985              6.112
 Vibration     2          0.594              1.982              5.413
 Vibration     3          0.596              1.975              4.552
 Vibration     4          0.597              1.972              4.342
 Vibration     5          0.601              1.958              3.717
 Vibration     6          0.602              1.955              3.624
 Vibration     7          0.609              1.931              3.073
 Vibration     8          0.613              1.920              2.901
 Vibration     9          0.615              1.913              2.794
 Vibration    10          0.630              1.865              2.314
 Vibration    11          0.631              1.863              2.295
 Vibration    12          0.638              1.839              2.125
 Vibration    13          0.641              1.829              2.064
 Vibration    14          0.644              1.820              2.012
 Vibration    15          0.659              1.774              1.779
 Vibration    16          0.671              1.739              1.635
 Vibration    17          0.680              1.710              1.533
 Vibration    18          0.683              1.701              1.500
 Vibration    19          0.695              1.667              1.399
 Vibration    20          0.698              1.659              1.374
 Vibration    21          0.708              1.630              1.297
 Vibration    22          0.728              1.573              1.161
 Vibration    23          0.755              1.498              1.012
 Vibration    24          0.778              1.439              0.911
 Vibration    25          0.793              1.399              0.850
 Vibration    26          0.808              1.363              0.798
 Vibration    27          0.809              1.360              0.795
 Vibration    28          0.827              1.317              0.738
 Vibration    29          0.848              1.267              0.677
 Vibration    30          0.858              1.244              0.651
 Vibration    31          0.870              1.216              0.621
 Vibration    32          0.886              1.182              0.586
 Vibration    33          0.904              1.142              0.547
 Vibration    34          0.912              1.125              0.530
 Vibration    35          0.917              1.114              0.520
 Vibration    36          0.928              1.091              0.500
 Vibration    37          0.968              1.012              0.434

                           ! Non-Optimized Parameters !
 Normal termination of Gaussian 16 at Thu Jun 30 00:14:35 2022.
