 Gaussian 16, Revision C.01,
 Gaussian 16:  ES64L-G16RevC.01  3-Jul-2019

 --------------------------------------------------
 #M062X/gen 6D INT(grid=ultrafine) OPT Freq=noraman
 --------------------------------------------------

 ----------
 HA.22.freq
 ----------
 Symbolic Z-matrix:
 Charge =  0 Multiplicity = 1

 SCF Done:  E(RM062X) =  -1991.70280208     A.U. after   17 cycles
 SCF Done:  E(RM062X) =  -1991.70587541     A.U. after   15 cycles
 SCF Done:  E(RM062X) =  -1991.70627673     A.U. after   14 cycles
 SCF Done:  E(RM062X) =  -1991.70636737     A.U. after   14 cycles
 SCF Done:  E(RM062X) =  -1991.70640131     A.U. after   13 cycles
 SCF Done:  E(RM062X) =  -1991.70642644     A.U. after   13 cycles
 SCF Done:  E(RM062X) =  -1991.70643234     A.U. after   12 cycles
 SCF Done:  E(RM062X) =  -1991.70643429     A.U. after   12 cycles
 SCF Done:  E(RM062X) =  -1991.70643527     A.U. after   12 cycles
 SCF Done:  E(RM062X) =  -1991.70643601     A.U. after   12 cycles
 SCF Done:  E(RM062X) =  -1991.70643622     A.U. after   10 cycles
 SCF Done:  E(RM062X) =  -1991.70643632     A.U. after   10 cycles
 SCF Done:  E(RM062X) =  -1991.70643637     A.U. after    9 cycles
 Optimization completed.
    -- Stationary point found.
 Normal termination of Gaussian 16 at Sun Jun 12 21:45:54 2022.

 ------------------------------------------------------------------
 #N Geom=AllCheck Guess=TCheck SCRF=Check GenChk RM062X/ChkBas Freq
 ------------------------------------------------------------------

 Structure from the checkpoint file:  "/jobfs/43751883.gadi-pbs/Gau-3871094.chk"
 ----------
 HA.22.freq
 ----------
 Charge =  0 Multiplicity = 1

                         Standard orientation:
 ---------------------------------------------------------------------
 Center     Atomic      Atomic             Coordinates (Angstroms)
 Number     Number       Type             X           Y           Z
 ---------------------------------------------------------------------
      1          6           0       -2.234495    0.242898   -0.107724
      2         16           0       -3.997716    0.300454   -0.306296
      3          8           0       -4.339668    1.703680   -0.422531
      4          8           0       -4.343209   -0.702275   -1.292451
      5          7           0       -4.665050   -0.218310    1.119022
      6          1           0       -4.454267    0.387870    1.907154
      7          1           0       -4.488769   -1.201381    1.310049
      8         16           0       -1.365293   -1.231981   -0.290845
      9          6           0        0.087899   -0.403019    0.152259
     10          6           0       -0.086639    0.947852    0.373064
     11          6           0       -1.463752    1.316192    0.226206
     12         16           0        1.655366   -1.195465    0.236834
     13          7           0        0.933049    1.845371    0.609614
     14          1           0       -1.858144    2.321252    0.332164
     15          6           0        2.711016    0.255104    0.008813
     16          6           0        2.248699    1.342994    0.978542
     17          8           0        1.889091   -1.706740    1.587383
     18          8           0        1.791893   -2.100430   -0.902596
     19          6           0        4.158757   -0.185775    0.229353
     20          6           0        5.155342    0.855625   -0.279556
     21          8           0        4.918782    1.217071   -1.626497
     22          1           0        0.655270    2.713412    1.047892
     23          1           0        2.557759    0.574546   -1.028170
     24          1           0        2.950058    2.179715    0.925511
     25          1           0        2.264404    0.936736    2.002029
     26          1           0        4.325277   -1.131279   -0.303037
     27          1           0        4.332077   -0.386193    1.293404
     28          1           0        6.176301    0.476330   -0.142002
     29          1           0        5.077187    1.787288    0.288524
     30          1           0        5.113083    0.462480   -2.201273
 ---------------------------------------------------------------------

 SCF Done:  E(RM062X) =  -1991.70643637     A.U. after    2 cycles

 The electronic state is 1-A.
 Alpha  occ. eigenvalues --  -90.19152 -90.15760 -90.00005 -19.67032 -19.66363
 Alpha  occ. eigenvalues --  -19.66187 -19.65097 -19.64902 -14.81979 -14.81961
 Alpha  occ. eigenvalues --  -10.64699 -10.63851 -10.62746 -10.62358 -10.62101
 Alpha  occ. eigenvalues --  -10.61273 -10.60537 -10.58390  -8.49993  -8.47116
 Alpha  occ. eigenvalues --   -8.34275  -6.42205  -6.42160  -6.42117  -6.39263
 Alpha  occ. eigenvalues --   -6.39249  -6.39179  -6.26293  -6.26064  -6.25774
 Alpha  occ. eigenvalues --   -1.26843  -1.24201  -1.17141  -1.15447  -1.13164
 Alpha  occ. eigenvalues --   -1.09984  -1.04509  -1.02060  -0.95181  -0.89692
 Alpha  occ. eigenvalues --   -0.87657  -0.84959  -0.80088  -0.77581  -0.74614
 Alpha  occ. eigenvalues --   -0.71135  -0.69338  -0.64982  -0.64780  -0.63723
 Alpha  occ. eigenvalues --   -0.62930  -0.60550  -0.59827  -0.59562  -0.58338
 Alpha  occ. eigenvalues --   -0.56434  -0.55353  -0.54697  -0.53579  -0.53150
 Alpha  occ. eigenvalues --   -0.52070  -0.50885  -0.50214  -0.48902  -0.47255
 Alpha  occ. eigenvalues --   -0.45531  -0.44595  -0.43729  -0.42539  -0.42412
 Alpha  occ. eigenvalues --   -0.42068  -0.41298  -0.40933  -0.40313  -0.39699
 Alpha  occ. eigenvalues --   -0.39505  -0.38689  -0.37743  -0.36345  -0.33605
 Alpha  occ. eigenvalues --   -0.29076
 Alpha virt. eigenvalues --   -0.04452  -0.01504  -0.00212   0.00588   0.01240
 Alpha virt. eigenvalues --    0.02222   0.02460   0.03204   0.03286   0.03645
 Alpha virt. eigenvalues --    0.04203   0.04553   0.05216   0.05260   0.05538

 Mulliken charges:
               1
     1  C   -1.095975
     2  S    1.711806
     3  O   -0.527968
     4  O   -0.499729
     5  N   -0.904865
     6  H    0.442128
     7  H    0.449740
     8  S    0.471927
     9  C   -0.480882
    10  C    0.657005
    11  C   -1.064084
    12  S    1.645383
    13  N   -0.488587
    14  H    0.268548
    15  C   -0.896647
    16  C   -0.268191
    17  O   -0.399833
    18  O   -0.489795
    19  C   -0.220735
    20  C   -0.382604
    21  O   -0.616829
    22  H    0.426119
    23  H    0.329330
    24  H    0.229873
    25  H    0.281908
    26  H    0.256068
    27  H    0.266284
    28  H    0.207781
    29  H    0.204704
    30  H    0.488118
 Sum of Mulliken charges =  -0.00000

 Dipole moment (field-independent basis, Debye):
    X=              4.2063    Y=              3.5130    Z=              4.7439  Tot=              7.2484
 Quadrupole moment (field-independent basis, Debye-Ang):
   XX=           -129.8697   YY=           -134.1431   ZZ=           -129.5102
   XY=              9.3167   XZ=            -16.0058   YZ=              8.5443

  Exact polarizability:     232.598       2.054     168.079       4.573       8.353     131.975
 Approx polarizability:     230.525       2.302     247.784       9.405      17.609     184.936

                      1                      2                      3
                      A                      A                      A
 Frequencies --     17.7129                32.1227                36.8118
 Red. masses --      5.5021                 6.1778                 6.4586
 Frc consts  --      0.0010                 0.0038                 0.0052
 IR Inten    --      2.6224                 4.9377                 4.6632

                      4                      5                      6
                      A                      A                      A
 Frequencies --     66.9346                88.6372               101.2881
 Red. masses --     11.2788                 6.6810                 6.4951
 Frc consts  --      0.0298                 0.0309                 0.0393
 IR Inten    --      5.6010                 0.2195                 4.9955

                      7                      8                      9
                      A                      A                      A
 Frequencies --    134.0861               159.9680               179.8952
 Red. masses --      6.2040                 3.4677                 5.0556
 Frc consts  --      0.0657                 0.0523                 0.0964
 IR Inten    --      3.3463                 3.5657                 2.9575

                     10                     11                     12
                      A                      A                      A
 Frequencies --    205.2811               227.2491               233.3148
 Red. masses --      9.2318                 4.1377                 7.7688
 Frc consts  --      0.2292                 0.1259                 0.2492
 IR Inten    --      3.2539                 3.2102                 0.4646

                     13                     14                     15
                      A                      A                      A
 Frequencies --    258.4426               274.8739               289.3163
 Red. masses --      3.5627                 2.7121                 2.8797
 Frc consts  --      0.1402                 0.1207                 0.1420
 IR Inten    --     31.7219                 2.2419                 8.3788

                     16                     17                     18
                      A                      A                      A
 Frequencies --    297.7358               316.5082               344.5342
 Red. masses --      2.7681                 4.6463                 1.1394
 Frc consts  --      0.1446                 0.2742                 0.0797
 IR Inten    --     28.3342                21.3462               168.7729

                     19                     20                     21
                      A                      A                      A
 Frequencies --    371.6799               394.6811               416.1840
 Red. masses --      4.2512                 3.8384                 1.5131
 Frc consts  --      0.3460                 0.3523                 0.1544
 IR Inten    --      5.3799                18.2899               109.0563

                     22                     23                     24
                      A                      A                      A
 Frequencies --    436.8843               443.8366               460.8902
 Red. masses --      3.4945                 4.2424                 3.1101
 Frc consts  --      0.3930                 0.4924                 0.3892
 IR Inten    --      6.7173                 2.3579                35.2317

                     25                     26                     27
                      A                      A                      A
 Frequencies --    480.6515               510.0973               517.4364
 Red. masses --      7.1593                 3.7907                 7.9266
 Frc consts  --      0.9745                 0.5811                 1.2504
 IR Inten    --      8.1394                26.2348                35.5038

                     28                     29                     30
                      A                      A                      A
 Frequencies --    551.9844               573.5372               581.1669
 Red. masses --      4.7735                 5.6567                 4.8509
 Frc consts  --      0.8569                 1.0963                 0.9653
 IR Inten    --     67.6872                 8.3498                 0.1986

                     31                     32                     33
                      A                      A                      A
 Frequencies --    623.3233               659.2766               670.1314
 Red. masses --      6.0119                 2.4617                 4.4662
 Frc consts  --      1.3762                 0.6304                 1.1817
 IR Inten    --     85.8657               326.0722                28.0864

                     34                     35                     36
                      A                      A                      A
 Frequencies --    686.3643               729.8173               752.4168
 Red. masses --      3.5058                 5.2034                 4.3862
 Frc consts  --      0.9731                 1.6329                 1.4630
 IR Inten    --    286.3269                36.5039                28.7662

                     37                     38                     39
                      A                      A                      A
 Frequencies --    837.0867               869.2203               876.3613
 Red. masses --      1.7236                 2.0605                 2.1845
 Frc consts  --      0.7116                 0.9173                 0.9885
 IR Inten    --      1.7838                66.1493                 8.5012

                     40                     41                     42
                      A                      A                      A
 Frequencies --    934.1818               962.4946              1017.8490
 Red. masses --      2.3914                 2.2642                 2.1085
 Frc consts  --      1.2296                 1.2359                 1.2870
 IR Inten    --      8.4286                26.1254                53.1682

                     43                     44                     45
                      A                      A                      A
 Frequencies --   1032.9126              1074.3804              1083.4495
 Red. masses --      2.4816                 2.5518                 7.2285
 Frc consts  --      1.5600                 1.7354                 4.9994
 IR Inten    --     60.8509                17.2597                16.7049

                     46                     47                     48
                      A                      A                      A
 Frequencies --   1094.0259              1109.0517              1115.6344
 Red. masses --      1.8103                 1.2635                 3.3816
 Frc consts  --      1.2766                 0.9156                 2.4798
 IR Inten    --      5.5279                 2.6592                 0.5430

                     49                     50                     51
                      A                      A                      A
 Frequencies --   1139.4205              1150.4050              1163.8505
 Red. masses --      5.3249                 4.2360                 3.0582
 Frc consts  --      4.0731                 3.3030                 2.4407
 IR Inten    --    140.8087                75.3976               193.3401

                     52                     53                     54
                      A                      A                      A
 Frequencies --   1182.5606              1191.1915              1230.9620
 Red. masses --     13.8854                 1.2749                 1.4433
 Frc consts  --     11.4407                 1.0659                 1.2886
 IR Inten    --    169.2233                33.4705                34.5819

                     55                     56                     57
                      A                      A                      A
 Frequencies --   1235.5568              1263.2535              1315.0368
 Red. masses --      1.7057                 1.3634                 1.8254
 Frc consts  --      1.5342                 1.2819                 1.8598
 IR Inten    --      8.4276                 0.7444                75.1292

                     58                     59                     60
                      A                      A                      A
 Frequencies --   1336.0142              1348.3812              1382.8332
 Red. masses --      2.0804                 1.5219                 1.7097
 Frc consts  --      2.1879                 1.6303                 1.9262
 IR Inten    --    101.7646                27.2264                 0.9204

                     61                     62                     63
                      A                      A                      A
 Frequencies --   1390.5847              1408.9903              1409.7027
 Red. masses --      1.3171                 1.7315                 5.5885
 Frc consts  --      1.5006                 2.0253                 6.5433
 IR Inten    --     13.5105                30.0524               170.7662

                     64                     65                     66
                      A                      A                      A
 Frequencies --   1420.2682              1429.9456              1503.8773
 Red. masses --      1.9534                 1.2919                 1.0911
 Frc consts  --      2.3216                 1.5564                 1.4540
 IR Inten    --     99.5726                36.3611                 6.1060

                     67                     68                     69
                      A                      A                      A
 Frequencies --   1510.5396              1524.0846              1536.6277
 Red. masses --      1.3634                 3.0478                 1.0901
 Frc consts  --      1.8329                 4.1712                 1.5165
 IR Inten    --     12.4316                 1.1280                 8.6973

                     70                     71                     72
                      A                      A                      A
 Frequencies --   1563.0590              1618.2925              1652.1077
 Red. masses --      2.2707                 1.1116                 6.8918
 Frc consts  --      3.2685                 1.7151                11.0830
 IR Inten    --    131.3112                54.2662               101.1758

                     73                     74                     75
                      A                      A                      A
 Frequencies --   3045.0758              3071.5498              3078.7111
 Red. masses --      1.0698                 1.0664                 1.0638
 Frc consts  --      5.8444                 5.9277                 5.9407
 IR Inten    --     24.7378                31.4358                33.0509

                     76                     77                     78
                      A                      A                      A
 Frequencies --   3122.0111              3131.0068              3140.2348
 Red. masses --      1.0959                 1.0899                 1.0989
 Frc consts  --      6.2933                 6.2951                 6.3848
 IR Inten    --      3.8931                12.6311                16.5732

                     79                     80                     81
                      A                      A                      A
 Frequencies --   3148.2031              3261.0066              3543.2382
 Red. masses --      1.0950                 1.0947                 1.0468
 Frc consts  --      6.3943                 6.8591                 7.7429
 IR Inten    --     16.9632                 3.1302                48.7218

                     82                     83                     84
                      A                      A                      A
 Frequencies --   3641.0310              3663.0915              3812.5631
 Red. masses --      1.0774                 1.1006                 1.0667
 Frc consts  --      8.4153                 8.7015                 9.1355
 IR Inten    --     42.9710                49.4021                42.3936

 - Thermochemistry -
 -------------------
 Temperature   298.150 Kelvin.  Pressure   1.00000 Atm.
 Atom     1 has atomic number  6 and mass  12.00000

 Molecular mass:   311.99084 amu.
 Principal axes and moments of inertia in atomic units:
                           1         2         3
     Eigenvalues --  2221.30811********************
           X            0.99996   0.00760  -0.00530
           Y           -0.00748   0.99973   0.02214
           Z            0.00547  -0.02210   0.99974
 This molecule is an asymmetric top.
 Rotational symmetry number  1.
 Warning -- assumption of classical behavior for rotation
           may cause significant error
 Rotational temperatures (Kelvin)      0.03899     0.00754     0.00701
 Rotational constants (GHZ):           0.81247     0.15710     0.14613
 Zero-point vibrational energy     584357.8 (Joules/Mol)
                                  139.66486 (Kcal/Mol)
 Warning -- explicit consideration of  30 degrees of freedom as
           vibrations may cause significant error
 Vibrational temperatures:     25.48    46.22    52.96    96.30   127.53
          (Kelvin)            145.73   192.92   230.16   258.83   295.35
                              326.96   335.69   371.84   395.48   416.26
                              428.38   455.38   495.71   534.76   567.86
                              598.80   628.58   638.58   663.12   691.55
                              733.92   744.48   794.18   825.19   836.17
                              896.82   948.55   964.17   987.53  1050.04
                             1082.56  1204.38  1250.61  1260.89  1344.08
                             1384.82  1464.46  1486.13  1545.79  1558.84
                             1574.06  1595.68  1605.15  1639.37  1655.18
                             1674.52  1701.44  1713.86  1771.08  1777.69
                             1817.54  1892.04  1922.23  1940.02  1989.59
                             2000.74  2027.22  2028.25  2043.45  2057.37
                             2163.74  2173.33  2192.82  2210.86  2248.89
                             2328.36  2377.01  4381.18  4419.28  4429.58
                             4491.88  4504.82  4518.10  4529.56  4691.86
                             5097.93  5238.63  5270.37  5485.43

 Zero-point correction=                           0.222570 (Hartree/Particle)
 Thermal correction to Energy=                    0.240729
 Thermal correction to Enthalpy=                  0.241673
 Thermal correction to Gibbs Free Energy=         0.174467
 Sum of electronic and zero-point Energies=          -1991.483866
 Sum of electronic and thermal Energies=             -1991.465707
 Sum of electronic and thermal Enthalpies=           -1991.464763
 Sum of electronic and thermal Free Energies=        -1991.531969

                     E (Thermal)             CV                S
                      KCal/Mol        Cal/Mol-Kelvin    Cal/Mol-Kelvin
 Total                  151.060             67.471            141.447
 Electronic               0.000              0.000              0.000
 Translational            0.889              2.981             43.110
 Rotational               0.889              2.981             34.110
 Vibrational            149.282             61.509             64.228
 Vibration     1          0.593              1.986              6.875
 Vibration     2          0.594              1.983              5.694
 Vibration     3          0.594              1.982              5.424
 Vibration     4          0.598              1.970              4.242
 Vibration     5          0.601              1.957              3.690
 Vibration     6          0.604              1.948              3.429
 Vibration     7          0.613              1.919              2.887
 Vibration     8          0.622              1.891              2.550
 Vibration     9          0.629              1.867              2.329
 Vibration    10          0.640              1.832              2.085
 Vibration    11          0.651              1.799              1.901
 Vibration    12          0.654              1.790              1.853
 Vibration    13          0.667              1.748              1.672
 Vibration    14          0.677              1.720              1.565
 Vibration    15          0.686              1.694              1.478
 Vibration    16          0.691              1.678              1.430
 Vibration    17          0.703              1.642              1.328
 Vibration    18          0.723              1.586              1.191
 Vibration    19          0.743              1.530              1.073
 Vibration    20          0.762              1.482              0.982
 Vibration    21          0.779              1.435              0.905
 Vibration    22          0.797              1.390              0.836
 Vibration    23          0.803              1.374              0.815
 Vibration    24          0.819              1.337              0.764
 Vibration    25          0.837              1.293              0.708
 Vibration    26          0.865              1.228              0.633
 Vibration    27          0.872              1.211              0.616
 Vibration    28          0.907              1.135              0.540
 Vibration    29          0.930              1.088              0.497
 Vibration    30          0.938              1.072              0.483

                           ! Non-Optimized Parameters !
 Normal termination of Gaussian 16 at Sun Jun 12 21:57:32 2022.
