 Gaussian 16, Revision C.01,
 Gaussian 16:  ES64L-G16RevC.01  3-Jul-2019

 --------------------------------------------------
 #M062X/gen 6D INT(grid=ultrafine) OPT Freq=noraman
 --------------------------------------------------

 --------------
 HA.25.a3d3.freq
 --------------
 Symbolic Z-matrix:
 Charge =  0 Multiplicity = 1

 SCF Done:  E(RM062X) =  -1396.71937325     A.U. after   15 cycles
 SCF Done:  E(RM062X) =  -1396.72134022     A.U. after   14 cycles
 SCF Done:  E(RM062X) =  -1396.72177519     A.U. after   13 cycles
 SCF Done:  E(RM062X) =  -1396.72204213     A.U. after   14 cycles
 SCF Done:  E(RM062X) =  -1396.72239010     A.U. after   15 cycles
 SCF Done:  E(RM062X) =  -1396.72272723     A.U. after   14 cycles
 SCF Done:  E(RM062X) =  -1396.72289529     A.U. after   14 cycles
 SCF Done:  E(RM062X) =  -1396.72295382     A.U. after   13 cycles
 SCF Done:  E(RM062X) =  -1396.72299135     A.U. after   11 cycles
 SCF Done:  E(RM062X) =  -1396.72299441     A.U. after   10 cycles
 SCF Done:  E(RM062X) =  -1396.72299797     A.U. after   10 cycles
 SCF Done:  E(RM062X) =  -1396.72299845     A.U. after   11 cycles
 SCF Done:  E(RM062X) =  -1396.72299856     A.U. after   10 cycles
 SCF Done:  E(RM062X) =  -1396.72299876     A.U. after   10 cycles
 SCF Done:  E(RM062X) =  -1396.72299887     A.U. after    9 cycles
 SCF Done:  E(RM062X) =  -1396.72299896     A.U. after    9 cycles
 SCF Done:  E(RM062X) =  -1396.72299898     A.U. after    8 cycles
 SCF Done:  E(RM062X) =  -1396.72299899     A.U. after    8 cycles
 SCF Done:  E(RM062X) =  -1396.72299899     A.U. after    7 cycles
 Optimization completed.
    -- Stationary point found.
 Normal termination of Gaussian 16 at Fri May 20 23:24:19 2022.

 ------------------------------------------------------------------
 #N Geom=AllCheck Guess=TCheck SCRF=Check GenChk RM062X/ChkBas Freq
 ------------------------------------------------------------------

 Structure from the checkpoint file:  "/jobfs/40781015.gadi-pbs/Gau-3292489.chk"
 --------------
 HA.25.a3d3.freq
 --------------
 Charge =  0 Multiplicity = 1

                         Standard orientation:
 ---------------------------------------------------------------------
 Center     Atomic      Atomic             Coordinates (Angstroms)
 Number     Number       Type             X           Y           Z
 ---------------------------------------------------------------------
      1          6           0       -0.985111    0.283881    0.009318
      2          6           0        1.307212    0.717655    0.010543
      3          7           0        2.683713    0.780324    0.015155
      4         16           0        0.397634   -0.762006    0.034178
      5         16           0       -2.670922   -0.323557   -0.061273
      6          8           0       -2.993519   -0.524651   -1.457132
      7          8           0       -2.752697   -1.389744    0.916027
      8          7           0       -3.589391    0.930999    0.480640
      9          1           0       -3.513035    1.751895   -0.116924
     10          6           0        3.516278   -0.325429    0.015193
     11          8           0        3.055054   -1.448584    0.039455
     12          6           0        4.990251   -0.015879   -0.047030
     13          7           0       -0.733669    1.551175   -0.006342
     14          7           0        0.599168    1.814079   -0.002222
     15          1           0        3.065581    1.719670   -0.006309
     16          1           0       -3.408130    1.151825    1.457107
     17          1           0        5.274018    0.173865   -1.087425
     18          1           0        5.541778   -0.884290    0.312303
     19          1           0        5.251144    0.862472    0.549202
 ---------------------------------------------------------------------

 SCF Done:  E(RM062X) =  -1396.72299899     A.U. after    1 cycles

 The electronic state is 1-A.
 Alpha  occ. eigenvalues --  -90.18851 -90.00905 -19.66828 -19.66055 -19.65962
 Alpha  occ. eigenvalues --  -14.85491 -14.83661 -14.82260 -14.81689 -10.70927
 Alpha  occ. eigenvalues --  -10.69510 -10.65649 -10.59003  -8.49735  -8.35250
 Alpha  occ. eigenvalues --   -6.41952  -6.41887  -6.41855  -6.27215  -6.27009
 Alpha  occ. eigenvalues --   -6.26739  -1.26683  -1.22216  -1.18906  -1.15009
 Alpha  occ. eigenvalues --   -1.10003  -1.04587  -0.96146  -0.94016  -0.87849
 Alpha  occ. eigenvalues --   -0.80086  -0.75152  -0.71822  -0.69085  -0.66457
 Alpha  occ. eigenvalues --   -0.63286  -0.60133  -0.59262  -0.58495  -0.57486
 Alpha  occ. eigenvalues --   -0.55221  -0.53779  -0.53424  -0.52818  -0.50651
 Alpha  occ. eigenvalues --   -0.48882  -0.44127  -0.43811  -0.43084  -0.41730
 Alpha  occ. eigenvalues --   -0.40250  -0.39907  -0.38961  -0.37942  -0.37723
 Alpha  occ. eigenvalues --   -0.36671  -0.33053
 Alpha virt. eigenvalues --   -0.03637  -0.01096   0.00705   0.00944   0.02036
 Alpha virt. eigenvalues --    0.02843   0.03265   0.03414   0.04986   0.05126
 Alpha virt. eigenvalues --    0.05484   0.05537   0.06474   0.06745   0.07180

 Mulliken charges:
               1
     1  C   -0.785623
     2  C   -0.507008
     3  N   -0.555448
     4  S    0.862717
     5  S    1.677570
     6  O   -0.471942
     7  O   -0.515987
     8  N   -0.971592
     9  H    0.458665
    10  C    0.731390
    11  O   -0.471422
    12  C   -0.998117
    13  N   -0.005662
    14  N   -0.143063
    15  H    0.470125
    16  H    0.463528
    17  H    0.263292
    18  H    0.266417
    19  H    0.232160
 Sum of Mulliken charges =  -0.00000

 Dipole moment (field-independent basis, Debye):
    X=              6.0670    Y=              4.2560    Z=              1.3652  Tot=              7.5356
 Quadrupole moment (field-independent basis, Debye-Ang):
   XX=            -73.5194   YY=            -96.4484   ZZ=            -91.3917
   XY=             -2.6292   XZ=             -5.8314   YZ=              2.2657

  Exact polarizability:     168.683      -2.699     114.350      -1.010      -0.568      80.691
 Approx polarizability:     169.373      -3.017     173.918       0.454      -3.119     111.653

 ******    1 imaginary frequencies (negative Signs) ******

                      1                      2                      3
                      A                      A                      A
 Frequencies --     -7.8176                16.2236                55.2935
 Red. masses --      1.4273                 2.5895                 5.2618
 Frc consts  --      0.0001                 0.0004                 0.0095
 IR Inten    --      1.0993                 2.4193                 0.4365

                      4                      5                      6
                      A                      A                      A
 Frequencies --     90.6490                94.5156               119.7252
 Red. masses --      9.2962                 7.3478                 6.5902
 Frc consts  --      0.0450                 0.0387                 0.0557
 IR Inten    --     12.1260                 3.3435                 2.4107

                      7                      8                      9
                      A                      A                      A
 Frequencies --    173.0466               233.1726               249.4342
 Red. masses --      5.4731                 3.2627                 5.2522
 Frc consts  --      0.0966                 0.1045                 0.1925
 IR Inten    --     49.1939                13.4553                 0.7020

                     10                     11                     12
                      A                      A                      A
 Frequencies --    284.4505               312.9175               355.2778
 Red. masses --      2.5098                 3.8333                 5.3034
 Frc consts  --      0.1196                 0.2211                 0.3944
 IR Inten    --      6.6528                 3.1589                 1.4844

                     13                     14                     15
                      A                      A                      A
 Frequencies --    403.8350               413.0039               452.7873
 Red. masses --      7.8925                 3.3879                 4.0962
 Frc consts  --      0.7584                 0.3405                 0.4948
 IR Inten    --      5.2716                10.9654                 4.8208

                     16                     17                     18
                      A                      A                      A
 Frequencies --    498.0638               536.9923               566.6122
 Red. masses --      9.8989                 1.6639                 5.4453
 Frc consts  --      1.4468                 0.2827                 1.0300
 IR Inten    --     19.0978                84.0834                 8.2154

                     19                     20                     21
                      A                      A                      A
 Frequencies --    606.5315               614.4580               619.2480
 Red. masses --      3.1894                 7.0721                 2.5138
 Frc consts  --      0.6913                 1.5732                 0.5680
 IR Inten    --     30.1164                16.8913                11.7140

                     22                     23                     24
                      A                      A                      A
 Frequencies --    648.7017               686.2394               716.1234
 Red. masses --     10.9345                 7.1471                 6.3223
 Frc consts  --      2.7111                 1.9830                 1.9103
 IR Inten    --      7.3338               125.7609                44.9328

                     25                     26                     27
                      A                      A                      A
 Frequencies --    733.4087               824.3628               887.4360
 Red. masses --      2.5554                 9.2583                 3.3292
 Frc consts  --      0.8098                 3.7070                 1.5448
 IR Inten    --    500.8557                 5.4871                23.5268

                     28                     29                     30
                      A                      A                      A
 Frequencies --    994.9027              1015.8396              1067.6667
 Red. masses --      3.5815                 1.8615                 1.7308
 Frc consts  --      2.0887                 1.1318                 1.1624
 IR Inten    --      0.6628                28.0627                 6.2136

                     31                     32                     33
                      A                      A                      A
 Frequencies --   1119.4170              1124.0506              1183.0748
 Red. masses --      4.7317                 1.4852                11.8878
 Frc consts  --      3.4934                 1.1056                 9.8034
 IR Inten    --     17.5512                 3.8621               169.6050

                     34                     35                     36
                      A                      A                      A
 Frequencies --   1202.3949              1253.5485              1357.4441
 Red. masses --     10.9499                 2.1274                 6.3767
 Frc consts  --      9.3273                 1.9696                 6.9229
 IR Inten    --     61.8241                97.5252               173.4866

                     37                     38                     39
                      A                      A                      A
 Frequencies --   1406.7798              1420.0434              1470.9380
 Red. masses --     13.2669                 1.2730                 1.8784
 Frc consts  --     15.4693                 1.5125                 2.3946
 IR Inten    --    241.8585                37.0153                67.4525

                     40                     41                     42
                      A                      A                      A
 Frequencies --   1499.8337              1506.9479              1545.3778
 Red. masses --      1.3081                 1.1025                11.8854
 Frc consts  --      1.7337                 1.4751                16.7237
 IR Inten    --      5.7095                14.9483                20.1114

                     43                     44                     45
                      A                      A                      A
 Frequencies --   1592.2860              1630.0629              1839.8020
 Red. masses --      4.3030                 1.1086                10.2936
 Frc consts  --      6.4278                 1.7355                20.5286
 IR Inten    --    617.1519                49.5305               195.0879

                     46                     47                     48
                      A                      A                      A
 Frequencies --   3096.9984              3169.1218              3214.2736
 Red. masses --      1.0382                 1.1012                 1.1024
 Frc consts  --      5.8670                 6.5159                 6.7103
 IR Inten    --      1.3516                 3.9805                 0.9596

                     49                     50                     51
                      A                      A                      A
 Frequencies --   3537.4454              3623.3902              3648.6303
 Red. masses --      1.0475                 1.0784                 1.0991
 Frc consts  --      7.7230                 8.3416                 8.6206
 IR Inten    --     60.1616                81.3738                64.5814

 - Thermochemistry -
 -------------------
 Temperature   298.150 Kelvin.  Pressure   1.00000 Atm.
 Atom     1 has atomic number  6 and mass  12.00000

 Molecular mass:   221.98813 amu.
 Principal axes and moments of inertia in atomic units:
                           1         2         3
     Eigenvalues --   939.392585693.890686243.73744
           X            0.99999  -0.00293  -0.00378
           Y            0.00296   0.99995   0.00970
           Z            0.00375  -0.00971   0.99995
 This molecule is an asymmetric top.
 Rotational symmetry number  1.
 Warning -- assumption of classical behavior for rotation
           may cause significant error
 Rotational temperatures (Kelvin)      0.09220     0.01521     0.01387
 Rotational constants (GHZ):           1.92118     0.31696     0.28905
    1 imaginary frequencies ignored.
 Zero-point vibrational energy     333236.4 (Joules/Mol)
                                   79.64542 (Kcal/Mol)
 Warning -- explicit consideration of  20 degrees of freedom as
           vibrations may cause significant error
 Vibrational temperatures:     23.34    79.55   130.42   135.99   172.26
          (Kelvin)            248.98   335.48   358.88   409.26   450.22
                              511.17   581.03   594.22   651.46   716.60
                              772.61   815.23   872.66   884.07   890.96
                              933.34   987.35  1030.34  1055.21  1186.07
                             1276.82  1431.44  1461.57  1536.13  1610.59
                             1617.26  1702.18  1729.98  1803.58  1953.06
                             2024.04  2043.13  2116.35  2157.93  2168.16
                             2223.45  2290.94  2345.30  2647.06  4455.89
                             4559.66  4624.62  5089.59  5213.25  5249.57

 Zero-point correction=                           0.126923 (Hartree/Particle)
 Thermal correction to Energy=                    0.139241
 Thermal correction to Enthalpy=                  0.140186
 Thermal correction to Gibbs Free Energy=         0.086107
 Sum of electronic and zero-point Energies=          -1396.596076
 Sum of electronic and thermal Energies=             -1396.583758
 Sum of electronic and thermal Enthalpies=           -1396.582813
 Sum of electronic and thermal Free Energies=        -1396.636892

                     E (Thermal)             CV                S
                      KCal/Mol        Cal/Mol-Kelvin    Cal/Mol-Kelvin
 Total                   87.375             44.296            113.818
 Electronic               0.000              0.000              0.000
 Translational            0.889              2.981             42.095
 Rotational               0.889              2.981             31.880
 Vibrational             85.598             38.335             39.844
 Vibration     1          0.593              1.986              7.050
 Vibration     2          0.596              1.975              4.618
 Vibration     3          0.602              1.956              3.646
 Vibration     4          0.603              1.953              3.564
 Vibration     5          0.609              1.933              3.105
 Vibration     6          0.627              1.876              2.402
 Vibration     7          0.654              1.790              1.854
 Vibration     8          0.662              1.764              1.735
 Vibration     9          0.683              1.703              1.507
 Vibration    10          0.701              1.649              1.347
 Vibration    11          0.731              1.564              1.143
 Vibration    12          0.769              1.462              0.949
 Vibration    13          0.777              1.442              0.916
 Vibration    14          0.811              1.355              0.787
 Vibration    15          0.854              1.254              0.663
 Vibration    16          0.892              1.168              0.572
 Vibration    17          0.923              1.103              0.511
 Vibration    18          0.965              1.018              0.439
 Vibration    19          0.974              1.001              0.425
 Vibration    20          0.979              0.991              0.418

 Optimization completed on the basis of negligible forces.
    -- Stationary point found.
 Normal termination of Gaussian 16 at Fri May 20 23:27:55 2022.
