 Gaussian 16, Revision C.01,
 Gaussian 16:  ES64L-G16RevC.01  3-Jul-2019

 --------------------------------------------------
 #M062X/gen 6D INT(grid=ultrafine) OPT Freq=noraman
 --------------------------------------------------

 ------------
 HA.2.a2.freq
 ------------
 Symbolic Z-matrix:
 Charge =  0 Multiplicity = 1

 SCF Done:  E(RM062X) =  -1295.53514923     A.U. after   15 cycles
 SCF Done:  E(RM062X) =  -1295.53668452     A.U. after   13 cycles
 SCF Done:  E(RM062X) =  -1295.53680180     A.U. after   12 cycles
 SCF Done:  E(RM062X) =  -1295.53681247     A.U. after   11 cycles
 SCF Done:  E(RM062X) =  -1295.53681567     A.U. after   11 cycles
 SCF Done:  E(RM062X) =  -1295.53681683     A.U. after   11 cycles
 SCF Done:  E(RM062X) =  -1295.53681702     A.U. after    9 cycles
 Optimization completed.
    -- Stationary point found.
 Normal termination of Gaussian 16 at Fri May 20 14:46:41 2022.

 ------------------------------------------------------------------
 #N Geom=AllCheck Guess=TCheck SCRF=Check GenChk RM062X/ChkBas Freq
 ------------------------------------------------------------------

 Structure from the checkpoint file:  "/jobfs/40737448.gadi-pbs/Gau-1071048.chk"
 ------------
 HA.2.a2.freq
 ------------
 Charge =  0 Multiplicity = 1

                         Standard orientation:
 ---------------------------------------------------------------------
 Center     Atomic      Atomic             Coordinates (Angstroms)
 Number     Number       Type             X           Y           Z
 ---------------------------------------------------------------------
      1          6           0        0.481505    0.000002   -0.104376
      2          6           0       -0.197846   -1.215337   -0.085632
      3          1           0        0.357553   -2.147200   -0.137874
      4          6           0       -1.588308   -1.216293   -0.030206
      5          1           0       -2.144382   -2.147637   -0.021988
      6          6           0       -2.267529   -0.000000    0.001645
      7         17           0       -4.004622   -0.000002    0.069310
      8          6           0       -1.588311    1.216294   -0.030199
      9          1           0       -2.144385    2.147636   -0.021977
     10          6           0       -0.197848    1.215341   -0.085626
     11          1           0        0.357550    2.147204   -0.137862
     12         16           0        2.267526    0.000004   -0.131368
     13          8           0        2.688194   -1.277588   -0.676212
     14          8           0        2.688188    1.277609   -0.676182
     15          7           0        2.779759   -0.000019    1.451916
     16          1           0        2.526271   -0.847604    1.952685
     17          1           0        2.526207    0.847514    1.952738
 ---------------------------------------------------------------------

 SCF Done:  E(RM062X) =  -1295.53681702     A.U. after    1 cycles

 The electronic state is 1-A.
 Alpha  occ. eigenvalues -- -102.69303 -90.17826 -19.65426 -19.65425 -14.81270
 Alpha  occ. eigenvalues --  -10.64944 -10.61220 -10.60144 -10.60141 -10.59782
 Alpha  occ. eigenvalues --  -10.59782  -9.83979  -8.48769  -7.56385  -7.55718
 Alpha  occ. eigenvalues --   -7.55696  -6.40988  -6.40938  -6.40851  -1.25825
 Alpha  occ. eigenvalues --   -1.14486  -1.03709  -1.02865  -0.97238  -0.89069
 Alpha  occ. eigenvalues --   -0.87456  -0.76700  -0.74046  -0.70137  -0.65587
 Alpha  occ. eigenvalues --   -0.63026  -0.60145  -0.57754  -0.57167  -0.55352
 Alpha  occ. eigenvalues --   -0.53390  -0.53276  -0.50105  -0.47695  -0.45514
 Alpha  occ. eigenvalues --   -0.43842  -0.42835  -0.41363  -0.40049  -0.39731
 Alpha  occ. eigenvalues --   -0.39373  -0.38317  -0.34974  -0.32769
 Alpha virt. eigenvalues --   -0.03233  -0.01993  -0.00615   0.01446   0.02375
 Alpha virt. eigenvalues --    0.02419   0.04504   0.04979   0.05275   0.05852
 Alpha virt. eigenvalues --    0.06665   0.07543   0.08022   0.08141   0.08640

 Mulliken charges:
               1
     1  C   -1.282644
     2  C    0.131002
     3  H    0.262031
     4  C   -0.339884
     5  H    0.241735
     6  C    0.178107
     7  Cl   0.249447
     8  C   -0.339873
     9  H    0.241735
    10  C    0.131015
    11  H    0.262032
    12  S    1.404063
    13  O   -0.541901
    14  O   -0.541895
    15  N   -0.934310
    16  H    0.439669
    17  H    0.439670
 Sum of Mulliken charges =  -0.00000

 Dipole moment (field-independent basis, Debye):
    X=             -3.1072    Y=             -0.0001    Z=              3.7015  Tot=              4.8328
 Quadrupole moment (field-independent basis, Debye-Ang):
   XX=            -95.7301   YY=            -73.6842   ZZ=            -76.3251
   XY=             -0.0004   XZ=              9.6410   YZ=             -0.0001

  Exact polarizability:     155.674      -0.000     106.718       1.213       0.000      72.322
 Approx polarizability:     170.273      -0.000     152.562      -1.568       0.000      92.270

                      1                      2                      3
                      A                      A                      A
 Frequencies --     47.2649                73.0024               153.4005
 Red. masses --      4.5904                 8.0802                 9.5488
 Frc consts  --      0.0060                 0.0254                 0.1324
 IR Inten    --      2.0513                 5.7020                 4.7899

                      4                      5                      6
                      A                      A                      A
 Frequencies --    188.9707               259.6848               261.3014
 Red. masses --      5.2098                15.9076                 1.7479
 Frc consts  --      0.1096                 0.6320                 0.0703
 IR Inten    --      9.0509                 0.1004                 9.8712

                      7                      8                      9
                      A                      A                      A
 Frequencies --    311.1837               342.3084               413.3147
 Red. masses --      3.4914                 5.5164                 3.0550
 Frc consts  --      0.1992                 0.3808                 0.3075
 IR Inten    --      2.9873                 6.0916                 5.7077

                     10                     11                     12
                      A                      A                      A
 Frequencies --    419.0807               463.8122               469.8880
 Red. masses --      2.9563                 3.5899                 5.4438
 Frc consts  --      0.3059                 0.4550                 0.7082
 IR Inten    --      0.0654                11.5850                 2.4418

                     13                     14                     15
                      A                      A                      A
 Frequencies --    487.4357               541.2640               592.1547
 Red. masses --      8.7612                 4.0130                 3.1781
 Frc consts  --      1.2264                 0.6927                 0.6566
 IR Inten    --     31.4473                63.0466                28.9305

                     16                     17                     18
                      A                      A                      A
 Frequencies --    636.9931               675.6944               728.5028
 Red. masses --      7.0973                 2.6442                 4.0889
 Frc consts  --      1.6967                 0.7113                 1.2785
 IR Inten    --      0.2233               421.9975                 4.8906

                     19                     20                     21
                      A                      A                      A
 Frequencies --    776.1407               853.3082               860.4396
 Red. masses --      6.2904                 1.6127                 1.2416
 Frc consts  --      2.2326                 0.6918                 0.5416
 IR Inten    --    137.3191                88.9525                 0.1121

                     22                     23                     24
                      A                      A                      A
 Frequencies --    869.1522               994.2549              1008.1052
 Red. masses --      3.1917                 1.3233                 1.3564
 Frc consts  --      1.4206                 0.7707                 0.8122
 IR Inten    --     30.3980                 0.0358                 0.0384

                     25                     26                     27
                      A                      A                      A
 Frequencies --   1030.1394              1104.2457              1123.7932
 Red. masses --      4.3396                 1.2442                 2.7755
 Frc consts  --      2.7133                 0.8938                 2.0652
 IR Inten    --     20.5962                 1.0414                31.1138

                     28                     29                     30
                      A                      A                      A
 Frequencies --   1131.1599              1136.6486              1184.5129
 Red. masses --      4.4935                 1.2881                 6.7793
 Frc consts  --      3.3876                 0.9805                 5.6042
 IR Inten    --     77.5991                 5.9217               216.5434

                     31                     32                     33
                      A                      A                      A
 Frequencies --   1207.1292              1320.3968              1332.1754
 Red. masses --      1.1928                 1.3879                 5.9616
 Frc consts  --      1.0240                 1.4257                 6.2336
 IR Inten    --      2.8425                 8.4600                 6.4081

                     34                     35                     36
                      A                      A                      A
 Frequencies --   1396.8763              1445.8332              1530.9297
 Red. masses --     12.3448                 3.1460                 2.3434
 Frc consts  --     14.1922                 3.8748                 3.2360
 IR Inten    --    194.5877                24.1067                36.9071

                     37                     38                     39
                      A                      A                      A
 Frequencies --   1619.7569              1660.5693              1666.9567
 Red. masses --      1.1113                 7.7618                 6.1181
 Frc consts  --      1.7179                12.6104                10.0165
 IR Inten    --     54.6579                 4.2615                45.0973

                     40                     41                     42
                      A                      A                      A
 Frequencies --   3239.2858              3240.3463              3253.5991
 Red. masses --      1.0898                 1.0897                 1.0952
 Frc consts  --      6.7373                 6.7410                 6.8309
 IR Inten    --      1.2078                 0.8477                 0.0123

                     43                     44                     45
                      A                      A                      A
 Frequencies --   3254.7225              3542.3698              3661.7271
 Red. masses --      1.0960                 1.0468                 1.1002
 Frc consts  --      6.8408                 7.7394                 8.6917
 IR Inten    --      1.7560                41.5750                44.6708

 - Thermochemistry -
 -------------------
 Temperature   298.150 Kelvin.  Pressure   1.00000 Atm.
 Atom     1 has atomic number  6 and mass  12.00000

 Molecular mass:   190.98078 amu.
 Principal axes and moments of inertia in atomic units:
                           1         2         3
     Eigenvalues --   699.843584519.603434842.56739
           X            0.99996  -0.00000   0.00872
           Y            0.00000   1.00000  -0.00000
           Z           -0.00872   0.00000   0.99996
 This molecule is an asymmetric top.
 Rotational symmetry number  1.
 Warning -- assumption of classical behavior for rotation
           may cause significant error
 Rotational temperatures (Kelvin)      0.12376     0.01916     0.01789
 Rotational constants (GHZ):           2.57878     0.39931     0.37268
 Zero-point vibrational energy     314078.5 (Joules/Mol)
                                   75.06657 (Kcal/Mol)
 Warning -- explicit consideration of  15 degrees of freedom as
           vibrations may cause significant error
 Vibrational temperatures:     68.00   105.03   220.71   271.89   373.63
          (Kelvin)            375.95   447.72   492.51   594.67   602.96
                              667.32   676.06   701.31   778.76   851.98
                              916.49   972.17  1048.15  1116.69  1227.72
                             1237.98  1250.52  1430.51  1450.44  1482.14
                             1588.76  1616.89  1627.49  1635.38  1704.25
                             1736.79  1899.76  1916.70  2009.79  2080.23
                             2202.67  2330.47  2389.19  2398.38  4660.61
                             4662.14  4681.20  4682.82  5096.68  5268.41

 Zero-point correction=                           0.119626 (Hartree/Particle)
 Thermal correction to Energy=                    0.129619
 Thermal correction to Enthalpy=                  0.130563
 Thermal correction to Gibbs Free Energy=         0.083088
 Sum of electronic and zero-point Energies=          -1295.417191
 Sum of electronic and thermal Energies=             -1295.407198
 Sum of electronic and thermal Enthalpies=           -1295.406254
 Sum of electronic and thermal Free Energies=        -1295.453729

                     E (Thermal)             CV                S
                      KCal/Mol        Cal/Mol-Kelvin    Cal/Mol-Kelvin
 Total                   81.337             37.583             99.920
 Electronic               0.000              0.000              0.000
 Translational            0.889              2.981             41.647
 Rotational               0.889              2.981             31.105
 Vibrational             79.560             31.622             27.169
 Vibration     1          0.595              1.979              4.929
 Vibration     2          0.599              1.967              4.071
 Vibration     3          0.619              1.899              2.630
 Vibration     4          0.633              1.855              2.238
 Vibration     5          0.668              1.746              1.664
 Vibration     6          0.669              1.744              1.653
 Vibration     7          0.700              1.652              1.356
 Vibration     8          0.721              1.591              1.201
 Vibration     9          0.777              1.441              0.915
 Vibration    10          0.782              1.429              0.895
 Vibration    11          0.821              1.330              0.755
 Vibration    12          0.827              1.317              0.738
 Vibration    13          0.843              1.278              0.690
 Vibration    14          0.896              1.159              0.563
 Vibration    15          0.950              1.048              0.463

 Optimization completed.
    -- Stationary point found.
 Normal termination of Gaussian 16 at Fri May 20 14:49:25 2022.
