 Gaussian 16, Revision C.01,
 Gaussian 16:  ES64L-G16RevC.01  3-Jul-2019

 --------------------------------------------------
 #M062X/gen 6D INT(grid=ultrafine) OPT Freq=noraman
 --------------------------------------------------

 ----------
 HA.24.freq
 ----------
 Symbolic Z-matrix:
 Charge =  0 Multiplicity = 1

 SCF Done:  E(RM062X) =  -1326.35285683     A.U. after   16 cycles
 SCF Done:  E(RM062X) =  -1326.35419366     A.U. after   14 cycles
 SCF Done:  E(RM062X) =  -1326.35443359     A.U. after   14 cycles
 SCF Done:  E(RM062X) =  -1326.35459748     A.U. after   16 cycles
 SCF Done:  E(RM062X) =  -1326.35467714     A.U. after   14 cycles
 SCF Done:  E(RM062X) =  -1326.35476520     A.U. after   14 cycles
 SCF Done:  E(RM062X) =  -1326.35482435     A.U. after   13 cycles
 SCF Done:  E(RM062X) =  -1326.35482557     A.U. after   11 cycles
 SCF Done:  E(RM062X) =  -1326.35482596     A.U. after   11 cycles
 SCF Done:  E(RM062X) =  -1326.35482603     A.U. after    9 cycles
 Optimization completed.
    -- Stationary point found.
 Normal termination of Gaussian 16 at Thu Jun 23 16:29:19 2022.

 ------------------------------------------------------------------
 #N Geom=AllCheck Guess=TCheck SCRF=Check GenChk RM062X/ChkBas Freq
 ------------------------------------------------------------------

 Structure from the checkpoint file:  "/jobfs/45202644.gadi-pbs/Gau-4133479.chk"
 ----------
 HA.24.freq
 ----------
 Charge =  0 Multiplicity = 1

                         Standard orientation:
 ---------------------------------------------------------------------
 Center     Atomic      Atomic             Coordinates (Angstroms)
 Number     Number       Type             X           Y           Z
 ---------------------------------------------------------------------
      1          6           0       -0.668810    0.012967   -0.012758
      2          6           0        1.645920    0.683824    0.006526
      3         16           0        0.138759    1.557754    0.024175
      4         16           0       -2.463814   -0.071051   -0.091434
      5          8           0       -2.937212    1.137690    0.553826
      6          8           0       -2.820978   -0.426800   -1.447103
      7          7           0       -2.879528   -1.347658    0.866743
      8          1           0       -2.650841   -1.193561    1.845797
      9          7           0        0.051686   -1.050035   -0.022546
     10          6           0        1.394958   -0.703911   -0.012192
     11          6           0        2.951828    1.184211    0.020546
     12          6           0        3.995465    0.271311    0.012923
     13          6           0        3.753872   -1.115382   -0.006290
     14          6           0        2.462251   -1.612274   -0.017647
     15          1           0       -2.512897   -2.229141    0.513278
     16          1           0        3.143205    2.252341    0.035312
     17          1           0        5.018392    0.634723    0.021154
     18          1           0        4.594512   -1.801866   -0.013645
     19          1           0        2.256026   -2.677502   -0.035572
 ---------------------------------------------------------------------

 SCF Done:  E(RM062X) =  -1326.35482603     A.U. after    1 cycles

 The electronic state is 1-A.
 Alpha  occ. eigenvalues --  -90.18597 -89.99177 -19.66062 -19.65919 -14.81711
 Alpha  occ. eigenvalues --  -14.81003 -10.66425 -10.61889 -10.61745 -10.59070
 Alpha  occ. eigenvalues --  -10.58438 -10.58398 -10.58105  -8.49518  -8.33596
 Alpha  occ. eigenvalues --   -6.41731  -6.41672  -6.41628  -6.25592  -6.25377
 Alpha  occ. eigenvalues --   -6.25100  -1.26565  -1.14993  -1.11785  -1.04427
 Alpha  occ. eigenvalues --   -0.98519  -0.93034  -0.87582  -0.85767  -0.78903
 Alpha  occ. eigenvalues --   -0.71958  -0.70921  -0.68905  -0.63381  -0.62889
 Alpha  occ. eigenvalues --   -0.59555  -0.58769  -0.58035  -0.54428  -0.53405
 Alpha  occ. eigenvalues --   -0.53040  -0.52703  -0.48900  -0.45584  -0.44848
 Alpha  occ. eigenvalues --   -0.43544  -0.42997  -0.41490  -0.41149  -0.39945
 Alpha  occ. eigenvalues --   -0.39801  -0.38930  -0.37145  -0.31938  -0.31117
 Alpha virt. eigenvalues --   -0.04360  -0.00674  -0.00249   0.00555   0.01799
 Alpha virt. eigenvalues --    0.02457   0.02688   0.03381   0.04215   0.04356
 Alpha virt. eigenvalues --    0.05078   0.06077   0.06396   0.06905   0.07289

 Mulliken charges:
               1
     1  C   -0.735181
     2  C    0.558482
     3  S    0.450381
     4  S    1.819331
     5  O   -0.533291
     6  O   -0.461360
     7  N   -0.927421
     8  H    0.446972
     9  N   -0.047972
    10  C   -0.506123
    11  C   -0.224626
    12  C   -0.109627
    13  C   -0.279582
    14  C   -0.801956
    15  H    0.455561
    16  H    0.229609
    17  H    0.217260
    18  H    0.218003
    19  H    0.231537
 Sum of Mulliken charges =  -0.00000

 Dipole moment (field-independent basis, Debye):
    X=              5.3627    Y=             -1.5785    Z=              2.5008  Tot=              6.1241
 Quadrupole moment (field-independent basis, Debye-Ang):
   XX=            -91.2711   YY=            -82.1458   ZZ=            -92.7260
   XY=              6.8385   XZ=             -6.4198   YZ=             -4.3466

  Exact polarizability:     192.137      -3.606     134.513      -0.814       0.605      83.101
 Approx polarizability:     217.979      -7.589     199.845       0.453       4.597     114.705

                      1                      2                      3
                      A                      A                      A
 Frequencies --     25.8597                75.0740               114.9573
 Red. masses --      6.8788                 7.2317                 6.7353
 Frc consts  --      0.0027                 0.0240                 0.0524
 IR Inten    --      4.4808                 1.8442                 9.1993

                      4                      5                      6
                      A                      A                      A
 Frequencies --    192.8356               202.9997               249.3895
 Red. masses --      5.6246                 5.7062                 4.9561
 Frc consts  --      0.1232                 0.1385                 0.1816
 IR Inten    --      4.7313                 8.4312                 9.1412

                      7                      8                      9
                      A                      A                      A
 Frequencies --    267.2987               305.7193               359.6999
 Red. masses --      3.4877                 2.4287                 3.9327
 Frc consts  --      0.1468                 0.1337                 0.2998
 IR Inten    --     12.4562                13.5448                 0.7210

                     10                     11                     12
                      A                      A                      A
 Frequencies --    399.2824               434.3728               449.9368
 Red. masses --      5.8861                 2.7602                 3.3709
 Frc consts  --      0.5529                 0.3068                 0.4021
 IR Inten    --      2.6600                21.5402                 3.3767

                     13                     14                     15
                      A                      A                      A
 Frequencies --    489.0971               515.2363               550.1469
 Red. masses --     10.6510                 8.4016                 5.2125
 Frc consts  --      1.5012                 1.3141                 0.9295
 IR Inten    --     20.6406                 0.9833                14.0095

                     16                     17                     18
                      A                      A                      A
 Frequencies --    552.4945               611.6875               624.9232
 Red. masses --      6.2336                 4.9502                 7.0826
 Frc consts  --      1.1211                 1.0913                 1.6297
 IR Inten    --     14.9574                12.1686                 9.7661

                     19                     20                     21
                      A                      A                      A
 Frequencies --    703.7064               716.6902               730.0465
 Red. masses --      3.6659                 3.8975                 6.3794
 Frc consts  --      1.0696                 1.1795                 2.0032
 IR Inten    --    194.4467               336.6240                92.2680

                     22                     23                     24
                      A                      A                      A
 Frequencies --    741.7193               782.2814               874.4788
 Red. masses --      3.0848                 1.5009                 5.7154
 Frc consts  --      0.9999                 0.5412                 2.5751
 IR Inten    --     13.4631                64.9992                16.1564

                     25                     26                     27
                      A                      A                      A
 Frequencies --    882.7124               884.1015               979.6246
 Red. masses --      1.7975                 2.3136                 1.3577
 Frc consts  --      0.8252                 1.0655                 0.7677
 IR Inten    --     14.5844                32.5345                 1.0129

                     28                     29                     30
                      A                      A                      A
 Frequencies --   1018.6249              1046.3572              1057.7027
 Red. masses --      1.3027                 4.1934                 2.6157
 Frc consts  --      0.7964                 2.7051                 1.7241
 IR Inten    --      0.0021                 2.3392                 8.0134

                     31                     32                     33
                      A                      A                      A
 Frequencies --   1116.3005              1122.9823              1157.8301
 Red. masses --      2.2752                 1.7904                 1.3950
 Frc consts  --      1.6704                 1.3303                 1.1018
 IR Inten    --      3.0778                 8.2364                 3.0123

                     34                     35                     36
                      A                      A                      A
 Frequencies --   1189.7330              1194.5314              1279.4539
 Red. masses --      5.5469                 1.4459                 2.1503
 Frc consts  --      4.6259                 1.2156                 2.0739
 IR Inten    --    217.0633                30.6362                10.3766

                     37                     38                     39
                      A                      A                      A
 Frequencies --   1319.5606              1363.0385              1405.9803
 Red. masses --      2.1788                 7.7399                13.3525
 Frc consts  --      2.2352                 8.4723                15.5515
 IR Inten    --      7.7251                14.5007               227.8039

                     40                     41                     42
                      A                      A                      A
 Frequencies --   1483.9737              1512.6315              1597.1622
 Red. masses --      2.4924                 2.8390                 9.8290
 Frc consts  --      3.2339                 3.8272                14.7726
 IR Inten    --     17.5070                 6.0240                35.7297

                     43                     44                     45
                      A                      A                      A
 Frequencies --   1627.7420              1640.8622              1684.7633
 Red. masses --      1.1127                 6.6643                 6.7511
 Frc consts  --      1.7370                10.5718                11.2902
 IR Inten    --     52.0762                 5.5563                 2.2920

                     46                     47                     48
                      A                      A                      A
 Frequencies --   3227.5215              3236.8759              3245.3378
 Red. masses --      1.0867                 1.0903                 1.0952
 Frc consts  --      6.6697                 6.7305                 6.7961
 IR Inten    --      0.7585                 2.4954                 6.9546

                     49                     50                     51
                      A                      A                      A
 Frequencies --   3251.7905              3537.0838              3651.6691
 Red. masses --      1.0979                 1.0472                 1.0996
 Frc consts  --      6.8403                 7.7188                 8.6389
 IR Inten    --      7.6147                50.7268                59.6422

 - Thermochemistry -
 -------------------
 Temperature   298.150 Kelvin.  Pressure   1.00000 Atm.
 Atom     1 has atomic number  6 and mass  12.00000

 Molecular mass:   213.98707 amu.
 Principal axes and moments of inertia in atomic units:
                           1         2         3
     Eigenvalues --  1045.713304652.907145321.35199
           X            0.99998   0.00430  -0.00501
           Y           -0.00438   0.99985  -0.01696
           Z            0.00494   0.01698   0.99984
 This molecule is an asymmetric top.
 Rotational symmetry number  1.
 Warning -- assumption of classical behavior for rotation
           may cause significant error
 Rotational temperatures (Kelvin)      0.08283     0.01862     0.01628
 Rotational constants (GHZ):           1.72585     0.38787     0.33915
 Zero-point vibrational energy     345038.2 (Joules/Mol)
                                   82.46611 (Kcal/Mol)
 Warning -- explicit consideration of  17 degrees of freedom as
           vibrations may cause significant error
 Vibrational temperatures:     37.21   108.01   165.40   277.45   292.07
          (Kelvin)            358.82   384.58   439.86   517.53   574.48
                              624.97   647.36   703.70   741.31   791.54
                              794.92   880.08   899.13  1012.48  1031.16
                             1050.37  1067.17  1125.53  1258.18  1270.03
                             1272.02  1409.46  1465.57  1505.47  1521.80
                             1606.11  1615.72  1665.86  1711.76  1718.66
                             1840.85  1898.55  1961.11  2022.89  2135.11
                             2176.34  2297.96  2341.96  2360.83  2424.00
                             4643.68  4657.14  4669.32  4678.60  5089.07
                             5253.94

 Zero-point correction=                           0.131418 (Hartree/Particle)
 Thermal correction to Energy=                    0.142411
 Thermal correction to Enthalpy=                  0.143356
 Thermal correction to Gibbs Free Energy=         0.093247
 Sum of electronic and zero-point Energies=          -1326.223408
 Sum of electronic and thermal Energies=             -1326.212415
 Sum of electronic and thermal Enthalpies=           -1326.211470
 Sum of electronic and thermal Free Energies=        -1326.261579

                     E (Thermal)             CV                S
                      KCal/Mol        Cal/Mol-Kelvin    Cal/Mol-Kelvin
 Total                   89.365             42.077            105.463
 Electronic               0.000              0.000              0.000
 Translational            0.889              2.981             41.986
 Rotational               0.889              2.981             31.627
 Vibrational             87.587             36.116             31.851
 Vibration     1          0.593              1.985              6.124
 Vibration     2          0.599              1.966              4.016
 Vibration     3          0.608              1.937              3.183
 Vibration     4          0.635              1.850              2.200
 Vibration     5          0.639              1.836              2.106
 Vibration     6          0.662              1.764              1.735
 Vibration     7          0.672              1.733              1.614
 Vibration     8          0.696              1.663              1.385
 Vibration     9          0.734              1.555              1.123
 Vibration    10          0.765              1.472              0.965
 Vibration    11          0.795              1.395              0.844
 Vibration    12          0.809              1.361              0.796
 Vibration    13          0.845              1.274              0.686
 Vibration    14          0.870              1.216              0.621
 Vibration    15          0.905              1.139              0.544
 Vibration    16          0.908              1.134              0.539
 Vibration    17          0.971              1.007              0.430

                           ! Non-Optimized Parameters !
 Normal termination of Gaussian 16 at Thu Jun 23 16:32:54 2022.
