 Gaussian 16, Revision C.01,
 Gaussian 16:  ES64L-G16RevC.01  3-Jul-2019

 --------------------------------------------------
 #M062X/gen 6D INT(grid=ultrafine) OPT Freq=noraman
 --------------------------------------------------

 ---------------
 HA.20.a2e2.freq
 ---------------
 Symbolic Z-matrix:
 Charge =  0 Multiplicity = 1

 SCF Done:  E(RM062X) =  -2261.94737093     A.U. after   18 cycles
 SCF Done:  E(RM062X) =  -2261.95038506     A.U. after   15 cycles
 SCF Done:  E(RM062X) =  -2261.95098866     A.U. after   15 cycles
 SCF Done:  E(RM062X) =  -2261.95124900     A.U. after   16 cycles
 SCF Done:  E(RM062X) =  -2261.95143346     A.U. after   14 cycles
 SCF Done:  E(RM062X) =  -2261.95159343     A.U. after   16 cycles
 SCF Done:  E(RM062X) =  -2261.95162139     A.U. after   14 cycles
 SCF Done:  E(RM062X) =  -2261.95162763     A.U. after   13 cycles
 SCF Done:  E(RM062X) =  -2261.95163374     A.U. after   14 cycles
 SCF Done:  E(RM062X) =  -2261.95163420     A.U. after   12 cycles
 SCF Done:  E(RM062X) =  -2261.95163458     A.U. after   12 cycles
 SCF Done:  E(RM062X) =  -2261.95163452     A.U. after   11 cycles
 SCF Done:  E(RM062X) =  -2261.95163460     A.U. after   10 cycles
 SCF Done:  E(RM062X) =  -2261.95163465     A.U. after   10 cycles
 Optimization completed.
    -- Stationary point found.
 Normal termination of Gaussian 16 at Sat May 28 15:24:56 2022.

 ------------------------------------------------------------------
 #N Geom=AllCheck Guess=TCheck SCRF=Check GenChk RM062X/ChkBas Freq
 ------------------------------------------------------------------

 Structure from the checkpoint file:  "/jobfs/41560453.gadi-pbs/Gau-3360144.chk"
 ---------------
 HA.20.a2e2.freq
 ---------------
 Charge =  0 Multiplicity = 1

                         Standard orientation:
 ---------------------------------------------------------------------
 Center     Atomic      Atomic             Coordinates (Angstroms)
 Number     Number       Type             X           Y           Z
 ---------------------------------------------------------------------
      1          6           0        3.910969   -0.406318    0.306590
      2         16           0        5.044533   -1.655153   -0.236061
      3          8           0        5.384393   -2.438766    0.935202
      4          8           0        4.480890   -2.211209   -1.448705
      5          7           0        6.444250   -0.892800   -0.689941
      6          1           0        6.937202   -0.460993    0.087258
      7          1           0        6.324888   -0.271484   -1.485770
      8         16           0        3.929966    0.180034    1.933238
      9          6           0        2.686583    1.303141    1.572123
     10          6           0        2.284762    1.205661    0.269760
     11          6           0        2.987237    0.219584   -0.478478
     12         16           0        0.997542    2.227794   -0.402369
     13          6           0       -0.421116    1.154280   -0.453401
     14          8           0        1.375555    2.535064   -1.778772
     15          8           0        0.744179    3.272909    0.586168
     16          6           0       -0.687275    0.440899   -1.616943
     17          6           0       -1.791636   -0.408677   -1.640860
     18          6           0       -2.611089   -0.546818   -0.519221
     19          6           0       -2.326806    0.192451    0.635654
     20          6           0       -1.231371    1.046565    0.675869
     21          1           0        2.299429    1.982218    2.321644
     22          1           0        2.819795   -0.011117   -1.525029
     23          1           0       -0.055844    0.573004   -2.490568
     24          1           0       -2.022482   -0.962656   -2.547237
     25          1           0       -1.010279    1.639924    1.558420
     26          6           0       -3.784113   -1.503011   -0.536614
     27          7           0       -4.949470   -0.968074    0.147433
     28          1           0       -2.988453    0.099966    1.492202
     29          1           0       -3.490499   -2.426958   -0.021182
     30          1           0       -4.017130   -1.781050   -1.582829
     31          6           0       -5.534325    0.156115   -0.580630
     32          6           0       -5.963708   -1.996461    0.356731
     33          6           0       -7.150635   -1.402575    1.101106
     34          6           0       -6.732930    0.696004    0.184795
     35          8           0       -7.702457   -0.312713    0.390220
     36          1           0       -5.857979   -0.159221   -1.591765
     37          1           0       -4.781876    0.944303   -0.693630
     38          1           0       -5.527738   -2.811591    0.945582
     39          1           0       -6.312865   -2.414499   -0.607402
     40          1           0       -6.827604   -1.070147    2.100296
     41          1           0       -7.948128   -2.141201    1.210853
     42          1           0       -7.224780    1.492636   -0.377950
     43          1           0       -6.399519    1.094875    1.155956
 ---------------------------------------------------------------------

 SCF Done:  E(RM062X) =  -2261.95163465     A.U. after    1 cycles

 The electronic state is 1-A.
 Alpha  occ. eigenvalues --  -90.19286 -90.16252 -90.00733 -19.66436 -19.66339
 Alpha  occ. eigenvalues --  -19.65680 -19.65399 -19.65363 -14.82032 -14.77757
 Alpha  occ. eigenvalues --  -10.63750 -10.63307 -10.61672 -10.61181 -10.60453
 Alpha  occ. eigenvalues --  -10.60287 -10.60201 -10.59874 -10.59198 -10.59097
 Alpha  occ. eigenvalues --  -10.59026 -10.58595 -10.58303 -10.58292 -10.57912
 Alpha  occ. eigenvalues --   -8.50120  -8.47517  -8.35111  -6.42332  -6.42288
 Alpha  occ. eigenvalues --   -6.42245  -6.39684  -6.39651  -6.39598  -6.27103
 Alpha  occ. eigenvalues --   -6.26870  -6.26662  -1.26948  -1.24539  -1.17598
 Alpha  occ. eigenvalues --   -1.15559  -1.13907  -1.05922  -1.04694  -1.03865
 Alpha  occ. eigenvalues --   -0.99808  -0.91528  -0.89345  -0.88440  -0.88341
 Alpha  occ. eigenvalues --   -0.87600  -0.83734  -0.79306  -0.77221  -0.75704
 Alpha  occ. eigenvalues --   -0.74218  -0.72526  -0.69514  -0.69189  -0.66589
 Alpha  occ. eigenvalues --   -0.66221  -0.64956  -0.63784  -0.61978  -0.60575
 Alpha  occ. eigenvalues --   -0.59755  -0.58149  -0.57154  -0.56925  -0.55701
 Alpha  occ. eigenvalues --   -0.55480  -0.54887  -0.54770  -0.54306  -0.53515
 Alpha  occ. eigenvalues --   -0.52074  -0.52051  -0.51445  -0.51121  -0.50364
 Alpha  occ. eigenvalues --   -0.49784  -0.48618  -0.46825  -0.46362  -0.45622
 Alpha  occ. eigenvalues --   -0.44797  -0.43900  -0.43203  -0.43154  -0.42389
 Alpha  occ. eigenvalues --   -0.41890  -0.41806  -0.41436  -0.41188  -0.40458
 Alpha  occ. eigenvalues --   -0.39964  -0.39214  -0.38529  -0.37042  -0.35829
 Alpha  occ. eigenvalues --   -0.34316  -0.33871  -0.33632  -0.32632  -0.30322
 Alpha virt. eigenvalues --   -0.04869  -0.02785  -0.00906  -0.00713   0.00182
 Alpha virt. eigenvalues --    0.00694   0.01479   0.01726   0.02121   0.02412
 Alpha virt. eigenvalues --    0.02771   0.03217   0.03391   0.03699   0.04007

 Mulliken charges:
               1
     1  C   -1.350917
     2  S    1.717755
     3  O   -0.512605
     4  O   -0.536941
     5  N   -0.904907
     6  H    0.447107
     7  H    0.441577
     8  S    0.428466
     9  C   -0.152231
    10  C   -0.776238
    11  C    0.604624
    12  S    0.622921
    13  C   -0.087000
    14  O   -0.360637
    15  O   -0.413289
    16  C   -0.042009
    17  C   -0.263943
    18  C    0.434854
    19  C   -0.763056
    20  C    0.288022
    21  H    0.298839
    22  H    0.285626
    23  H    0.256537
    24  H    0.218298
    25  H    0.251580
    26  C   -0.645241
    27  N   -0.418717
    28  H    0.252227
    29  H    0.237592
    30  H    0.211497
    31  C   -0.178351
    32  C   -0.182088
    33  C   -0.376301
    34  C   -0.415276
    35  O   -0.337525
    36  H    0.219010
    37  H    0.233542
    38  H    0.208490
    39  H    0.223203
    40  H    0.205675
    41  H    0.211360
    42  H    0.213461
    43  H    0.205008
 Sum of Mulliken charges =  -0.00000

 Dipole moment (field-independent basis, Debye):
    X=             -0.7971    Y=             -0.1062    Z=              1.6123  Tot=              1.8017
 Quadrupole moment (field-independent basis, Debye-Ang):
   XX=           -166.7664   YY=           -194.4441   ZZ=           -164.8380
   XY=             26.9085   XZ=              2.6882   YZ=              4.5871

  Exact polarizability:     317.267       3.906     223.408       2.066       9.813     229.062
 Approx polarizability:     312.474       2.618     288.215       6.426      18.554     342.901

                      1                      2                      3
                      A                      A                      A
 Frequencies --     12.7782                16.9165                21.1488
 Red. masses --      8.0521                 7.0737                 4.6771
 Frc consts  --      0.0008                 0.0012                 0.0012
 IR Inten    --      1.7486                 1.0499                 1.9285

                      4                      5                      6
                      A                      A                      A
 Frequencies --     33.8684                45.1883                49.9500
 Red. masses --      5.3026                 6.2588                 5.3222
 Frc consts  --      0.0036                 0.0075                 0.0078
 IR Inten    --      2.9273                 1.3087                 0.5093

                      7                      8                      9
                      A                      A                      A
 Frequencies --     57.9925                88.4121               102.9812
 Red. masses --      3.4641                 9.3356                 6.1849
 Frc consts  --      0.0069                 0.0430                 0.0386
 IR Inten    --      0.1505                 6.8093                 5.1650

                     10                     11                     12
                      A                      A                      A
 Frequencies --    135.4262               143.4450               176.4334
 Red. masses --      5.4166                 6.0953                 6.8421
 Frc consts  --      0.0585                 0.0739                 0.1255
 IR Inten    --      1.8265                 0.0512                 1.5495

                     13                     14                     15
                      A                      A                      A
 Frequencies --    193.5048               218.3289               235.5459
 Red. masses --      6.1219                 6.6180                 5.5747
 Frc consts  --      0.1351                 0.1859                 0.1822
 IR Inten    --      1.6993                 2.4822                 3.2941

                     16                     17                     18
                      A                      A                      A
 Frequencies --    241.4508               269.0155               280.9279
 Red. masses --      9.1350                 1.9490                 1.8835
 Frc consts  --      0.3138                 0.0831                 0.0876
 IR Inten    --      0.6437                 0.8863                10.5620

                     19                     20                     21
                      A                      A                      A
 Frequencies --    296.7453               306.2424               328.8203
 Red. masses --      4.8909                 4.7827                 4.5207
 Frc consts  --      0.2538                 0.2643                 0.2880
 IR Inten    --     18.8683                 0.4191                 1.9865

                     22                     23                     24
                      A                      A                      A
 Frequencies --    332.6585               353.1968               364.1130
 Red. masses --      5.4840                 2.9883                 2.9014
 Frc consts  --      0.3576                 0.2196                 0.2266
 IR Inten    --      0.3983                 9.3212                 1.8374

                     25                     26                     27
                      A                      A                      A
 Frequencies --    372.7067               403.0965               415.2564
 Red. masses --      4.8412                 4.5586                 2.9481
 Frc consts  --      0.3962                 0.4364                 0.2995
 IR Inten    --      7.3995                 2.9489                 0.4442

                     28                     29                     30
                      A                      A                      A
 Frequencies --    442.7106               455.6634               458.7225
 Red. masses --      1.9312                 3.6241                 4.5581
 Frc consts  --      0.2230                 0.4433                 0.5651
 IR Inten    --      1.9222                11.0503                 9.4690

                     31                     32                     33
                      A                      A                      A
 Frequencies --    472.1554               483.1743               499.0869
 Red. masses --      4.7930                 6.0882                 2.9493
 Frc consts  --      0.6295                 0.8374                 0.4328
 IR Inten    --      4.2692                 1.9372                 1.0131

                     34                     35                     36
                      A                      A                      A
 Frequencies --    510.0966               536.8601               552.3800
 Red. masses --      4.2070                 8.1479                 5.2997
 Frc consts  --      0.6450                 1.3836                 0.9527
 IR Inten    --     21.3060                50.6752                 5.9621

                     37                     38                     39
                      A                      A                      A
 Frequencies --    578.6927               602.9379               633.3525
 Red. masses --      5.7823                 4.5789                 2.8352
 Frc consts  --      1.1409                 0.9807                 0.6701
 IR Inten    --     46.3985               247.5546                 3.4020

                     40                     41                     42
                      A                      A                      A
 Frequencies --    635.0280               647.6696               660.8737
 Red. masses --      3.9766                 3.1068                 2.6039
 Frc consts  --      0.9448                 0.7678                 0.6701
 IR Inten    --    110.5828                 1.6215               340.0596

                     43                     44                     45
                      A                      A                      A
 Frequencies --    698.1763               713.7669               737.0040
 Red. masses --      4.7190                 5.9117                 4.3328
 Frc consts  --      1.3553                 1.7745                 1.3866
 IR Inten    --     76.9871               179.8274                36.1927

                     46                     47                     48
                      A                      A                      A
 Frequencies --    824.7633               832.9162               842.2839
 Red. masses --      1.9354                 1.4758                 3.4274
 Frc consts  --      0.7757                 0.6032                 1.4326
 IR Inten    --      7.4626                11.3240                 7.1566

                     49                     50                     51
                      A                      A                      A
 Frequencies --    862.9967               870.8705               873.2926
 Red. masses --      2.1467                 3.5147                 1.2617
 Frc consts  --      0.9420                 1.5705                 0.5669
 IR Inten    --     41.0083                60.3167                 0.3601

                     52                     53                     54
                      A                      A                      A
 Frequencies --    875.8115               879.1608               900.7201
 Red. masses --      3.9417                 1.5978                 1.4530
 Frc consts  --      1.7814                 0.7276                 0.6946
 IR Inten    --      3.5756                 0.3558                 4.1253

                     55                     56                     57
                      A                      A                      A
 Frequencies --    909.1599               918.8865               946.6030
 Red. masses --      5.9802                 2.8199                 2.0786
 Frc consts  --      2.9124                 1.4028                 1.0974
 IR Inten    --     55.9058                35.7743                19.8388

                     58                     59                     60
                      A                      A                      A
 Frequencies --    993.9816              1014.1451              1024.6963
 Red. masses --      1.3352                 1.3652                 1.9589
 Frc consts  --      0.7772                 0.8273                 1.2118
 IR Inten    --      2.9518                 1.3811                 0.7974

                     61                     62                     63
                      A                      A                      A
 Frequencies --   1036.2853              1051.9795              1056.5874
 Red. masses --      2.9880                 3.0820                 2.5307
 Frc consts  --      1.8906                 2.0095                 1.6646
 IR Inten    --      9.7075               113.1877                29.9549

                     64                     65                     66
                      A                      A                      A
 Frequencies --   1064.4616              1104.5821              1107.1218
 Red. masses --      2.0840                 2.9835                 1.7443
 Frc consts  --      1.3913                 2.1447                 1.2597
 IR Inten    --      8.9398                41.5652                 0.9656

                     67                     68                     69
                      A                      A                      A
 Frequencies --   1110.8131              1132.9114              1136.6195
 Red. masses --      1.2953                 2.0747                 1.3917
 Frc consts  --      0.9416                 1.5689                 1.0593
 IR Inten    --     14.0857                48.4374                12.2909

                     70                     71                     72
                      A                      A                      A
 Frequencies --   1155.4051              1169.1513              1179.7990
 Red. masses --      2.1001                 5.5420                 9.4469
 Frc consts  --      1.6518                 4.4633                 7.7474
 IR Inten    --      2.6008               297.2547               126.7030

                     73                     74                     75
                      A                      A                      A
 Frequencies --   1191.3477              1200.8378              1206.1062
 Red. masses --      2.3276                 3.4910                 1.1765
 Frc consts  --      1.9464                 2.9660                 1.0084
 IR Inten    --     59.5860                84.8834                 1.8455

                     76                     77                     78
                      A                      A                      A
 Frequencies --   1208.9211              1224.8236              1243.6728
 Red. masses --      1.4285                 2.6619                 2.0656
 Frc consts  --      1.2301                 2.3528                 1.8824
 IR Inten    --      9.8919                14.3133                 4.1647

                     79                     80                     81
                      A                      A                      A
 Frequencies --   1249.1765              1280.6317              1308.9528
 Red. masses --      1.2022                 1.4048                 1.4818
 Frc consts  --      1.1053                 1.3574                 1.4959
 IR Inten    --      5.1973                10.8116                27.6482

                     82                     83                     84
                      A                      A                      A
 Frequencies --   1331.1642              1337.8362              1346.1773
 Red. masses --      1.3697                 2.0890                 5.3947
 Frc consts  --      1.4300                 2.2029                 5.7600
 IR Inten    --      9.2914                 5.7254               143.2125

                     85                     86                     87
                      A                      A                      A
 Frequencies --   1353.7947              1360.7847              1376.5610
 Red. masses --      1.2658                 2.5821                 1.2979
 Frc consts  --      1.3668                 2.8171                 1.4491
 IR Inten    --      7.8328                20.8031                 3.8862

                     88                     89                     90
                      A                      A                      A
 Frequencies --   1399.9446              1401.3289              1407.7031
 Red. masses --      4.4091                 1.5747                12.2651
 Frc consts  --      5.0913                 1.8219                14.3200
 IR Inten    --     12.9652                53.1027               189.9791

                     91                     92                     93
                      A                      A                      A
 Frequencies --   1420.0451              1432.6457              1449.8189
 Red. masses --      1.5456                 1.4599                 1.8273
 Frc consts  --      1.8363                 1.7654                 2.2631
 IR Inten    --     13.4503                 5.6143                 9.6101

                     94                     95                     96
                      A                      A                      A
 Frequencies --   1462.7584              1499.6061              1499.9486
 Red. masses --      2.3135                 1.1096                 7.5106
 Frc consts  --      2.9165                 1.4702                 9.9559
 IR Inten    --     23.4408                 2.2220                27.3344

                     97                     98                     99
                      A                      A                      A
 Frequencies --   1506.7394              1508.9244              1518.6335
 Red. masses --      1.0945                 1.0887                 1.1105
 Frc consts  --      1.4640                 1.4605                 1.5089
 IR Inten    --      4.2327                 0.9068                16.9108

                    100                    101                    102
                      A                      A                      A
 Frequencies --   1525.3270              1547.4780              1601.5252
 Red. masses --      1.1121                 2.4975                 7.0941
 Frc consts  --      1.5245                 3.5237                10.7204
 IR Inten    --      0.2162                 2.9379                28.9547

                    103                    104                    105
                      A                      A                      A
 Frequencies --   1619.8319              1662.2854              1682.6036
 Red. masses --      1.1115                 7.2821                 6.1246
 Frc consts  --      1.7183                11.8555                10.2163
 IR Inten    --     58.5731                 2.0564                19.5359

                    106                    107                    108
                      A                      A                      A
 Frequencies --   2971.8337              2972.5209              2977.9311
 Red. masses --      1.0715                 1.0722                 1.0708
 Frc consts  --      5.5758                 5.5820                 5.5950
 IR Inten    --     22.3410                17.3939               134.2661

                    109                    110                    111
                      A                      A                      A
 Frequencies --   3037.8532              3040.9918              3085.1276
 Red. masses --      1.0695                 1.0699                 1.0882
 Frc consts  --      5.8154                 5.8292                 6.1022
 IR Inten    --     19.4210                78.5784                11.0046

                    112                    113                    114
                      A                      A                      A
 Frequencies --   3111.3609              3122.9009              3154.8172
 Red. masses --      1.0904                 1.0898                 1.0946
 Frc consts  --      6.2191                 6.2621                 6.4186
 IR Inten    --     30.6286                22.4953                36.9160

                    115                    116                    117
                      A                      A                      A
 Frequencies --   3156.5394              3218.2139              3231.1540
 Red. masses --      1.0956                 1.0900                 1.0885
 Frc consts  --      6.4315                 6.6514                 6.6958
 IR Inten    --     24.5675                 5.7125                 0.5124

                    118                    119                    120
                      A                      A                      A
 Frequencies --   3243.5746              3244.5241              3271.1656
 Red. masses --      1.0942                 1.0949                 1.0952
 Frc consts  --      6.7826                 6.7908                 6.9045
 IR Inten    --      0.1996                 1.6761                 7.6315

                    121                    122                    123
                      A                      A                      A
 Frequencies --   3294.0873              3544.5619              3664.2545
 Red. masses --      1.0950                 1.0467                 1.1007
 Frc consts  --      7.0005                 7.7482                 8.7077
 IR Inten    --     17.8889                54.0896                49.2786

 - Thermochemistry -
 -------------------
 Temperature   298.150 Kelvin.  Pressure   1.00000 Atm.
 Atom     1 has atomic number  6 and mass  12.00000

 Molecular mass:   402.03779 amu.
 Principal axes and moments of inertia in atomic units:
                           1         2         3
     Eigenvalues --  4868.55692********************
           X            0.99997   0.00777  -0.00268
           Y           -0.00774   0.99991   0.01084
           Z            0.00276  -0.01081   0.99994
 This molecule is an asymmetric top.
 Rotational symmetry number  1.
 Warning -- assumption of classical behavior for rotation
           may cause significant error
 Rotational temperatures (Kelvin)      0.01779     0.00315     0.00295
 Rotational constants (GHZ):           0.37069     0.06560     0.06141
 Zero-point vibrational energy     875677.6 (Joules/Mol)
                                  209.29196 (Kcal/Mol)
 Warning -- explicit consideration of  38 degrees of freedom as
           vibrations may cause significant error
 Vibrational temperatures:     18.38    24.34    30.43    48.73    65.02
          (Kelvin)             71.87    83.44   127.21   148.17   194.85
                              206.39   253.85   278.41   314.13   338.90
                              347.39   387.05   404.19   426.95   440.61
                              473.10   478.62   508.17   523.88   536.24
                              579.97   597.46   636.96   655.60   660.00
                              679.33   695.18   718.07   733.92   772.42
                              794.75   832.61   867.49   911.25   913.66
                              931.85   950.85  1004.52  1026.95  1060.38
                             1186.65  1198.38  1211.86  1241.66  1252.99
                             1256.47  1260.10  1264.92  1295.94  1308.08
                             1322.07  1361.95  1430.12  1459.13  1474.31
                             1490.98  1513.56  1520.19  1531.52  1589.25
                             1592.90  1598.21  1630.01  1635.34  1662.37
                             1682.15  1697.47  1714.08  1727.74  1735.32
                             1739.37  1762.25  1789.37  1797.29  1842.54
                             1883.29  1915.25  1924.85  1936.85  1947.81
                             1957.87  1980.56  2014.21  2016.20  2025.37
                             2043.13  2061.26  2085.97  2104.58  2157.60
                             2158.09  2167.86  2171.01  2184.97  2194.61
                             2226.48  2304.24  2330.58  2391.66  2420.89
                             4275.81  4276.79  4284.58  4370.79  4375.31
                             4438.81  4476.55  4493.16  4539.08  4541.56
                             4630.29  4648.91  4666.78  4668.15  4706.48
                             4739.46  5099.83  5272.04

 Zero-point correction=                           0.333528 (Hartree/Particle)
 Thermal correction to Energy=                    0.356794
 Thermal correction to Enthalpy=                  0.357739
 Thermal correction to Gibbs Free Energy=         0.276484
 Sum of electronic and zero-point Energies=          -2261.618107
 Sum of electronic and thermal Energies=             -2261.594840
 Sum of electronic and thermal Enthalpies=           -2261.593896
 Sum of electronic and thermal Free Energies=        -2261.675151

                     E (Thermal)             CV                S
                      KCal/Mol        Cal/Mol-Kelvin    Cal/Mol-Kelvin
 Total                  223.892             88.477            171.015
 Electronic               0.000              0.000              0.000
 Translational            0.889              2.981             43.865
 Rotational               0.889              2.981             36.619
 Vibrational            222.114             82.515             90.531
 Vibration     1          0.593              1.987              7.524
 Vibration     2          0.593              1.986              6.967
 Vibration     3          0.593              1.985              6.523
 Vibration     4          0.594              1.983              5.589
 Vibration     5          0.595              1.979              5.018
 Vibration     6          0.595              1.978              4.819
 Vibration     7          0.596              1.974              4.524
 Vibration     8          0.601              1.957              3.695
 Vibration     9          0.605              1.947              3.397
 Vibration    10          0.613              1.918              2.868
 Vibration    11          0.616              1.910              2.757
 Vibration    12          0.628              1.871              2.366
 Vibration    13          0.635              1.849              2.194
 Vibration    14          0.646              1.813              1.973
 Vibration    15          0.655              1.786              1.836
 Vibration    16          0.658              1.777              1.792
 Vibration    17          0.673              1.730              1.603
 Vibration    18          0.681              1.709              1.528
 Vibration    19          0.690              1.680              1.435
 Vibration    20          0.697              1.662              1.383
 Vibration    21          0.712              1.618              1.266
 Vibration    22          0.715              1.610              1.247
 Vibration    23          0.729              1.569              1.152
 Vibration    24          0.738              1.546              1.104
 Vibration    25          0.744              1.528              1.069
 Vibration    26          0.768              1.463              0.951
 Vibration    27          0.779              1.437              0.908
 Vibration    28          0.802              1.377              0.818
 Vibration    29          0.814              1.348              0.779
 Vibration    30          0.817              1.342              0.770
 Vibration    31          0.829              1.312              0.732
 Vibration    32          0.839              1.287              0.702
 Vibration    33          0.855              1.252              0.660
 Vibration    34          0.865              1.228              0.633
 Vibration    35          0.892              1.169              0.572
 Vibration    36          0.908              1.134              0.539
 Vibration    37          0.935              1.077              0.488
 Vibration    38          0.961              1.026              0.445

                           ! Non-Optimized Parameters !
 Normal termination of Gaussian 16 at Sat May 28 16:00:34 2022.
