 Gaussian 16, Revision C.01,
 Gaussian 16:  ES64L-G16RevC.01  3-Jul-2019

 --------------------------------------------------
 #M062X/gen 6D INT(grid=ultrafine) OPT Freq=noraman
 --------------------------------------------------

 ---------------
 HA.27.a1d3.freq
 ---------------
 Symbolic Z-matrix:
 Charge =  0 Multiplicity = 1

 SCF Done:  E(RM062X) =  -1480.13228933     A.U. after   16 cycles
 SCF Done:  E(RM062X) =  -1480.13381443     A.U. after   14 cycles
 SCF Done:  E(RM062X) =  -1480.13410004     A.U. after   14 cycles
 SCF Done:  E(RM062X) =  -1480.13428206     A.U. after   14 cycles
 SCF Done:  E(RM062X) =  -1480.13439056     A.U. after   14 cycles
 SCF Done:  E(RM062X) =  -1480.13451302     A.U. after   16 cycles
 SCF Done:  E(RM062X) =  -1480.13459561     A.U. after   13 cycles
 SCF Done:  E(RM062X) =  -1480.13460655     A.U. after   11 cycles
 SCF Done:  E(RM062X) =  -1480.13460789     A.U. after   12 cycles
 SCF Done:  E(RM062X) =  -1480.13460807     A.U. after   11 cycles
 SCF Done:  E(RM062X) =  -1480.13460811     A.U. after    9 cycles
 SCF Done:  E(RM062X) =  -1480.13460812     A.U. after    9 cycles
 Optimization completed.
    -- Stationary point found.
 Normal termination of Gaussian 16 at Wed May 25 15:53:43 2022.

 ------------------------------------------------------------------
 #N Geom=AllCheck Guess=TCheck SCRF=Check GenChk RM062X/ChkBas Freq
 ------------------------------------------------------------------

 Structure from the checkpoint file:  "/jobfs/41232405.gadi-pbs/Gau-2138353.chk"
 ---------------
 HA.27.a1d3.freq
 ---------------
 Charge =  0 Multiplicity = 1

                         Standard orientation:
 ---------------------------------------------------------------------
 Center     Atomic      Atomic             Coordinates (Angstroms)
 Number     Number       Type             X           Y           Z
 ---------------------------------------------------------------------
      1          6           0        1.794757   -0.004112   -0.016227
      2         16           0        3.575280   -0.222063   -0.088791
      3          8           0        3.834323   -1.506468    0.532651
      4          8           0        4.003228    0.095191   -1.433770
      5          7           0        4.195433    0.947046    0.898754
      6          1           0        3.926297    0.817637    1.871140
      7          1           0        3.986353    1.883738    0.559047
      8          7           0        1.257755    1.162424   -0.023734
      9          6           0       -0.121562    1.043153   -0.016441
     10          6           0       -0.603564   -0.278026   -0.003683
     11         16           0        0.734757   -1.391425    0.013797
     12          6           0       -1.034128    2.112365   -0.019575
     13          6           0       -2.382411    1.838378   -0.012166
     14          6           0       -2.855908    0.503843    0.000164
     15          6           0       -1.973685   -0.571287    0.006264
     16          8           0       -4.203886    0.378528    0.005599
     17          6           0       -4.761708   -0.928697    0.012066
     18          6           0       -6.268265   -0.779549    0.012400
     19          1           0       -0.663520    3.132209   -0.032434
     20          1           0       -3.120748    2.633213   -0.017877
     21          1           0       -2.318900   -1.597801    0.016052
     22          1           0       -4.417514   -1.467064    0.905578
     23          1           0       -4.418483   -1.475261   -0.876751
     24          1           0       -6.596816   -0.228839    0.897613
     25          1           0       -6.742128   -1.765265    0.017451
     26          1           0       -6.597911   -0.237458   -0.877688
 ---------------------------------------------------------------------

 SCF Done:  E(RM062X) =  -1480.13460812     A.U. after    1 cycles

 The electronic state is 1-A.
 Alpha  occ. eigenvalues --  -90.18219 -89.98818 -19.69733 -19.65685 -19.65534
 Alpha  occ. eigenvalues --  -14.81355 -14.80630 -10.65750 -10.64347 -10.62489
 Alpha  occ. eigenvalues --  -10.61834 -10.60929 -10.58520 -10.58362 -10.57523
 Alpha  occ. eigenvalues --  -10.55829  -8.49140  -8.33229  -6.41353  -6.41295
 Alpha  occ. eigenvalues --   -6.41248  -6.25227  -6.25013  -6.24734  -1.26172
 Alpha  occ. eigenvalues --   -1.21774  -1.14598  -1.11328  -1.04049  -0.98216
 Alpha  occ. eigenvalues --   -0.92800  -0.89882  -0.85793  -0.85321  -0.78712
 Alpha  occ. eigenvalues --   -0.74709  -0.71015  -0.69867  -0.68558  -0.63245
 Alpha  occ. eigenvalues --   -0.63015  -0.62257  -0.59698  -0.58588  -0.58080
 Alpha  occ. eigenvalues --   -0.55439  -0.54082  -0.53559  -0.52457  -0.50527
 Alpha  occ. eigenvalues --   -0.49458  -0.48874  -0.47738  -0.46635  -0.44095
 Alpha  occ. eigenvalues --   -0.43892  -0.43189  -0.41921  -0.41507  -0.40684
 Alpha  occ. eigenvalues --   -0.40328  -0.39496  -0.38637  -0.38474  -0.36752
 Alpha  occ. eigenvalues --   -0.31150  -0.29076
 Alpha virt. eigenvalues --   -0.03443  -0.00566  -0.00221   0.00664   0.02017
 Alpha virt. eigenvalues --    0.02102   0.03163   0.03544   0.03818   0.04129
 Alpha virt. eigenvalues --    0.04220   0.04629   0.05126   0.06288   0.06613

 Mulliken charges:
               1
     1  C   -0.590964
     2  S    1.952749
     3  O   -0.528559
     4  O   -0.450987
     5  N   -0.922243
     6  H    0.446103
     7  H    0.455525
     8  N   -0.027276
     9  C   -0.601565
    10  C    0.594393
    11  S    0.461851
    12  C   -1.476930
    13  C   -0.143736
    14  C    0.064258
    15  C    0.312678
    16  O   -0.411239
    17  C    0.046418
    18  C   -0.965238
    19  H    0.235143
    20  H    0.230361
    21  H    0.222813
    22  H    0.208052
    23  H    0.209158
    24  H    0.229861
    25  H    0.218908
    26  H    0.230468
 Sum of Mulliken charges =  -0.00000

 Dipole moment (field-independent basis, Debye):
    X=             -6.1256    Y=              1.1840    Z=              2.5197  Tot=              6.7286
 Quadrupole moment (field-independent basis, Debye-Ang):
   XX=           -113.9647   YY=           -102.0818   ZZ=           -110.5150
   XY=             16.9136   XZ=             10.0215   YZ=              3.5715

  Exact polarizability:     247.669      -3.962     157.616       0.976      -0.549     104.320
 Approx polarizability:     258.338      -9.334     228.700      -1.029      -4.158     142.132

                      1                      2                      3
                      A                      A                      A
 Frequencies --     19.2152                41.3155                78.0512
 Red. masses --      5.8765                 5.9027                 6.1943
 Frc consts  --      0.0013                 0.0059                 0.0222
 IR Inten    --      4.2824                 1.0760                 2.9388

                      4                      5                      6
                      A                      A                      A
 Frequencies --     87.6256               119.5821               145.8405
 Red. masses --      5.8755                 1.7062                 4.3868
 Frc consts  --      0.0266                 0.0144                 0.0550
 IR Inten    --      5.9533                 0.7552                 3.9271

                      7                      8                      9
                      A                      A                      A
 Frequencies --    160.8626               201.2618               227.9755
 Red. masses --      6.9597                 5.0627                 6.4390
 Frc consts  --      0.1061                 0.1208                 0.1972
 IR Inten    --      3.9184                 3.7356                 1.1978

                     10                     11                     12
                      A                      A                      A
 Frequencies --    257.4309               261.2672               271.6268
 Red. masses --      1.7017                 2.0510                 3.1282
 Frc consts  --      0.0664                 0.0825                 0.1360
 IR Inten    --      5.9607                15.1874                17.0398

                     13                     14                     15
                      A                      A                      A
 Frequencies --    313.3023               332.3222               385.8504
 Red. masses --      2.6512                 3.5125                 7.1806
 Frc consts  --      0.1533                 0.2286                 0.6299
 IR Inten    --      5.4030                 1.1235                 2.5442

                     16                     17                     18
                      A                      A                      A
 Frequencies --    408.0100               443.2324               445.2585
 Red. masses --      3.7281                 3.2038                 4.9298
 Frc consts  --      0.3657                 0.3708                 0.5758
 IR Inten    --      6.8473                14.9025                 2.0834

                     19                     20                     21
                      A                      A                      A
 Frequencies --    449.0070               494.1693               543.7096
 Red. masses --      3.8224                11.8986                 6.7435
 Frc consts  --      0.4540                 1.7120                 1.1746
 IR Inten    --      5.4692                23.5755                24.7922

                     22                     23                     24
                      A                      A                      A
 Frequencies --    559.0665               588.0131               599.5871
 Red. masses --      5.5287                 6.7999                 5.2056
 Frc consts  --      1.0181                 1.3852                 1.1026
 IR Inten    --     14.6407                 6.2499                 7.2712

                     25                     26                     27
                      A                      A                      A
 Frequencies --    629.0659               703.0437               710.5596
 Red. masses --      3.8286                 4.0974                 4.9184
 Frc consts  --      0.8926                 1.1932                 1.4631
 IR Inten    --     12.6101               157.5520               128.2308

                     28                     29                     30
                      A                      A                      A
 Frequencies --    728.1784               735.3782               830.8893
 Red. masses --      4.2181                 4.8683                 1.2236
 Frc consts  --      1.3178                 1.5511                 0.4977
 IR Inten    --    353.4318                38.1929                 5.0509

                     31                     32                     33
                      A                      A                      A
 Frequencies --    848.6712               849.1427               864.7045
 Red. masses --      4.7668                 1.4564                 1.3648
 Frc consts  --      2.0228                 0.6187                 0.6012
 IR Inten    --     57.7985                30.4014                24.0145

                     34                     35                     36
                      A                      A                      A
 Frequencies --    879.7782               915.1896               977.8728
 Red. masses --      3.4416                 3.2064                 3.0453
 Frc consts  --      1.5695                 1.5823                 1.7157
 IR Inten    --     34.6581                 5.2828                13.9246

                     37                     38                     39
                      A                      A                      A
 Frequencies --    990.1523              1050.2779              1093.9242
 Red. masses --      1.3040                 3.7184                 3.3652
 Frc consts  --      0.7532                 2.4166                 2.3727
 IR Inten    --      0.0441                 8.3266                19.0814

                     40                     41                     42
                      A                      A                      A
 Frequencies --   1118.4153              1122.5939              1149.7090
 Red. masses --      2.0972                 1.7927                 1.2547
 Frc consts  --      1.5456                 1.3311                 0.9772
 IR Inten    --     39.0976                22.4568                11.5408

                     43                     44                     45
                      A                      A                      A
 Frequencies --   1163.7917              1187.9854              1192.6868
 Red. masses --      2.4486                14.1269                 1.5287
 Frc consts  --      1.9540                11.7468                 1.2812
 IR Inten    --     26.3751               290.0304                 4.5385

                     46                     47                     48
                      A                      A                      A
 Frequencies --   1271.9587              1309.8928              1320.2226
 Red. masses --      1.8636                 1.9598                 1.0977
 Frc consts  --      1.7764                 1.9812                 1.1273
 IR Inten    --     65.3275                64.4057                 1.3928

                     49                     50                     51
                      A                      A                      A
 Frequencies --   1328.2904              1376.0749              1404.2165
 Red. masses --      8.4725                 6.8930                13.2840
 Frc consts  --      8.8074                 7.6902                15.4329
 IR Inten    --    212.4129                44.3164               227.5042

                     52                     53                     54
                      A                      A                      A
 Frequencies --   1414.7649              1451.9281              1477.1992
 Red. masses --      1.2513                 1.4272                 4.2206
 Frc consts  --      1.4756                 1.7726                 5.4263
 IR Inten    --      5.2222                60.4075                 3.5030

                     55                     56                     57
                      A                      A                      A
 Frequencies --   1509.8193              1521.9589              1524.4071
 Red. masses --      1.0382                 2.4516                 1.1737
 Frc consts  --      1.3943                 3.3459                 1.6069
 IR Inten    --      8.1744               122.3849                26.7240

                     58                     59                     60
                      A                      A                      A
 Frequencies --   1547.6389              1599.3145              1628.2200
 Red. masses --      1.1735                 8.8821                 1.1116
 Frc consts  --      1.6560                13.3855                 1.7363
 IR Inten    --      1.0608               146.0208                51.1579

                     61                     62                     63
                      A                      A                      A
 Frequencies --   1634.9983              1691.9639              3051.4946
 Red. masses --      8.0283                 6.8033                 1.0558
 Frc consts  --     12.6446                11.4750                 5.7924
 IR Inten    --      5.9936               165.6386                22.4332

                     64                     65                     66
                      A                      A                      A
 Frequencies --   3094.3232              3095.1640              3173.5633
 Red. masses --      1.1086                 1.0354                 1.1026
 Frc consts  --      6.2537                 5.8443                 6.5428
 IR Inten    --     28.3023                18.1880                16.1845

                     67                     68                     69
                      A                      A                      A
 Frequencies --   3178.8030              3242.0063              3255.4319
 Red. masses --      1.1042                 1.0887                 1.0967
 Frc consts  --      6.5741                 6.7418                 6.8477
 IR Inten    --     19.1945                 0.8292                 1.7608

                     70                     71                     72
                      A                      A                      A
 Frequencies --   3266.9784              3536.1535              3650.2109
 Red. masses --      1.0913                 1.0472                 1.0994
 Frc consts  --      6.8628                 7.7149                 8.6308
 IR Inten    --      3.9297                50.3780                57.3617

 - Thermochemistry -
 -------------------
 Temperature   298.150 Kelvin.  Pressure   1.00000 Atm.
 Atom     1 has atomic number  6 and mass  12.00000

 Molecular mass:   258.01329 amu.
 Principal axes and moments of inertia in atomic units:
                           1         2         3
     Eigenvalues --  1261.536609837.81825**********
           X            0.99991   0.01311   0.00348
           Y           -0.01315   0.99986   0.01012
           Z           -0.00335  -0.01016   0.99994
 This molecule is an asymmetric top.
 Rotational symmetry number  1.
 Warning -- assumption of classical behavior for rotation
           may cause significant error
 Rotational temperatures (Kelvin)      0.06866     0.00880     0.00810
 Rotational constants (GHZ):           1.43059     0.18345     0.16867
 Zero-point vibrational energy     506813.4 (Joules/Mol)
                                  121.13132 (Kcal/Mol)
 Warning -- explicit consideration of  24 degrees of freedom as
           vibrations may cause significant error
 Vibrational temperatures:     27.65    59.44   112.30   126.07   172.05
          (Kelvin)            209.83   231.45   289.57   328.01   370.39
                              375.91   390.81   450.77   478.14   555.15
                              587.04   637.71   640.63   646.02   711.00
                              782.28   804.37   846.02   862.67   905.09
                             1011.52  1022.34  1047.69  1058.05  1195.46
                             1221.05  1221.73  1244.12  1265.80  1316.75
                             1406.94  1424.61  1511.12  1573.91  1609.15
                             1615.16  1654.17  1674.44  1709.25  1716.01
                             1830.06  1884.64  1899.51  1911.11  1979.86
                             2020.35  2035.53  2089.00  2125.36  2172.29
                             2189.76  2193.28  2226.71  2301.06  2342.65
                             2352.40  2434.36  4390.42  4452.04  4453.25
                             4566.05  4573.59  4664.52  4683.84  4700.45
                             5087.74  5251.84

 Zero-point correction=                           0.193035 (Hartree/Particle)
 Thermal correction to Energy=                    0.208056
 Thermal correction to Enthalpy=                  0.209000
 Thermal correction to Gibbs Free Energy=         0.149270
 Sum of electronic and zero-point Energies=          -1479.941573
 Sum of electronic and thermal Energies=             -1479.926553
 Sum of electronic and thermal Enthalpies=           -1479.925608
 Sum of electronic and thermal Free Energies=        -1479.985339

                     E (Thermal)             CV                S
                      KCal/Mol        Cal/Mol-Kelvin    Cal/Mol-Kelvin
 Total                  130.557             56.180            125.713
 Electronic               0.000              0.000              0.000
 Translational            0.889              2.981             42.543
 Rotational               0.889              2.981             33.251
 Vibrational            128.779             50.218             49.918
 Vibration     1          0.593              1.986              6.714
 Vibration     2          0.594              1.981              5.195
 Vibration     3          0.599              1.964              3.939
 Vibration     4          0.601              1.958              3.712
 Vibration     5          0.609              1.933              3.107
 Vibration     6          0.617              1.907              2.726
 Vibration     7          0.622              1.890              2.540
 Vibration     8          0.638              1.838              2.122
 Vibration     9          0.651              1.798              1.895
 Vibration    10          0.667              1.750              1.679
 Vibration    11          0.669              1.744              1.653
 Vibration    12          0.675              1.726              1.586
 Vibration    13          0.701              1.648              1.345
 Vibration    14          0.714              1.611              1.249
 Vibration    15          0.755              1.500              1.016
 Vibration    16          0.773              1.453              0.934
 Vibration    17          0.803              1.376              0.817
 Vibration    18          0.805              1.371              0.810
 Vibration    19          0.808              1.363              0.799
 Vibration    20          0.850              1.263              0.673
 Vibration    21          0.899              1.153              0.557
 Vibration    22          0.915              1.120              0.526
 Vibration    23          0.945              1.057              0.471
 Vibration    24          0.958              1.033              0.450

                           ! Non-Optimized Parameters !
 Normal termination of Gaussian 16 at Wed May 25 16:00:36 2022.
