 Gaussian 16, Revision C.01,
 Gaussian 16:  ES64L-G16RevC.01  3-Jul-2019

 --------------------------------------------------
 #M062X/gen 6D INT(grid=ultrafine) OPT Freq=noraman
 --------------------------------------------------

 -----------------
 HA.26.a2c2d2.freq
 -----------------
 Symbolic Z-matrix:
 Charge =  0 Multiplicity = 1

 SCF Done:  E(RM062X) =  -1436.00871182     A.U. after   16 cycles
 SCF Done:  E(RM062X) =  -1436.01022488     A.U. after   13 cycles
 SCF Done:  E(RM062X) =  -1436.01030570     A.U. after   13 cycles
 SCF Done:  E(RM062X) =  -1436.01029401     A.U. after   13 cycles
 SCF Done:  E(RM062X) =  -1436.01046899     A.U. after   12 cycles
 SCF Done:  E(RM062X) =  -1436.01048560     A.U. after   12 cycles
 SCF Done:  E(RM062X) =  -1436.01049922     A.U. after   12 cycles
 SCF Done:  E(RM062X) =  -1436.01051120     A.U. after   12 cycles
 SCF Done:  E(RM062X) =  -1436.01053068     A.U. after   13 cycles
 SCF Done:  E(RM062X) =  -1436.01054335     A.U. after   13 cycles
 SCF Done:  E(RM062X) =  -1436.01066066     A.U. after   11 cycles
 SCF Done:  E(RM062X) =  -1436.01066604     A.U. after   12 cycles
 SCF Done:  E(RM062X) =  -1436.01066129     A.U. after   13 cycles
 SCF Done:  E(RM062X) =  -1436.01066791     A.U. after   13 cycles
 SCF Done:  E(RM062X) =  -1436.01066663     A.U. after   12 cycles
 SCF Done:  E(RM062X) =  -1436.01066850     A.U. after   12 cycles
 SCF Done:  E(RM062X) =  -1436.01066899     A.U. after   10 cycles
 SCF Done:  E(RM062X) =  -1436.01066924     A.U. after   10 cycles
 SCF Done:  E(RM062X) =  -1436.01066937     A.U. after    9 cycles
 Optimization completed.
    -- Stationary point found.
 Normal termination of Gaussian 16 at Sat May 21 13:06:21 2022.

 ------------------------------------------------------------------
 #N Geom=AllCheck Guess=TCheck SCRF=Check GenChk RM062X/ChkBas Freq
 ------------------------------------------------------------------

 Structure from the checkpoint file:  "/jobfs/40839085.gadi-pbs/Gau-1913438.chk"
 -----------------
 HA.26.a2c2d2.freq
 -----------------
 Charge =  0 Multiplicity = 1

                         Standard orientation:
 ---------------------------------------------------------------------
 Center     Atomic      Atomic             Coordinates (Angstroms)
 Number     Number       Type             X           Y           Z
 ---------------------------------------------------------------------
      1          6           0       -1.020183    0.114408    0.009387
      2          7           0       -0.749301    1.370479   -0.000815
      3          7           0        0.588336    1.552282   -0.003766
      4          6           0        1.372856    0.438414    0.000073
      5          7           0        2.665277    0.523865   -0.001988
      6         16           0        0.330628   -0.992535    0.024240
      7         16           0       -2.727081   -0.433393   -0.077405
      8          8           0       -3.112317   -0.411059   -1.471008
      9          8           0       -2.784844   -1.629776    0.735072
     10          7           0       -3.604775    0.733783    0.683966
     11          1           0       -3.584884    1.627501    0.198693
     12          6           0        1.145722    2.896208   -0.006416
     13          1           0        0.307868    3.591040   -0.027511
     14          1           0        1.777958    3.025751   -0.886834
     15          1           0        1.750987    3.044106    0.890269
     16          1           0       -3.393090    0.812281    1.675332
     17          6           0        3.358655   -0.682854    0.006941
     18          6           0        4.855442   -0.531717   -0.014419
     19          8           0        2.803720   -1.773905    0.029531
     20          1           0        5.176591    0.064803    0.844530
     21          1           0        5.154692    0.010569   -0.916435
     22          1           0        5.328949   -1.512902    0.008660
 ---------------------------------------------------------------------

 SCF Done:  E(RM062X) =  -1436.01066937     A.U. after    1 cycles

 The electronic state is 1-A.
 Alpha  occ. eigenvalues --  -90.19541 -90.00387 -19.66697 -19.66634 -19.64452
 Alpha  occ. eigenvalues --  -14.89066 -14.86301 -14.82531 -14.77112 -10.69712
 Alpha  occ. eigenvalues --  -10.66943 -10.66514 -10.61825 -10.55314  -8.50414
 Alpha  occ. eigenvalues --   -8.34643  -6.42635  -6.42566  -6.42535  -6.26617
 Alpha  occ. eigenvalues --   -6.26391  -6.26094  -1.27404  -1.22813  -1.18510
 Alpha  occ. eigenvalues --   -1.15735  -1.06450  -1.05150  -1.00404  -0.92932
 Alpha  occ. eigenvalues --   -0.85735  -0.84575  -0.80133  -0.74536  -0.69777
 Alpha  occ. eigenvalues --   -0.67226  -0.64299  -0.61678  -0.60763  -0.60037
 Alpha  occ. eigenvalues --   -0.58453  -0.57256  -0.54761  -0.53313  -0.53288
 Alpha  occ. eigenvalues --   -0.51836  -0.51010  -0.48440  -0.47055  -0.46156
 Alpha  occ. eigenvalues --   -0.44430  -0.43410  -0.43094  -0.41821  -0.40886
 Alpha  occ. eigenvalues --   -0.40527  -0.40286  -0.38017  -0.37316  -0.33879
 Alpha  occ. eigenvalues --   -0.30848
 Alpha virt. eigenvalues --   -0.03422  -0.00918  -0.00812   0.00900   0.02013
 Alpha virt. eigenvalues --    0.02911   0.03081   0.03307   0.04768   0.04986
 Alpha virt. eigenvalues --    0.05581   0.05892   0.06076   0.06346   0.06978

 Mulliken charges:
               1
     1  C   -1.161869
     2  N    0.178187
     3  N   -0.285459
     4  C   -0.470315
     5  N   -0.251796
     6  S    0.931268
     7  S    1.677263
     8  O   -0.476126
     9  O   -0.518501
    10  N   -0.954664
    11  H    0.455969
    12  C   -0.472658
    13  H    0.245357
    14  H    0.262876
    15  H    0.260959
    16  H    0.459028
    17  C    0.881334
    18  C   -1.023813
    19  O   -0.462496
    20  H    0.239939
    21  H    0.241341
    22  H    0.244177
 Sum of Mulliken charges =  -0.00000

 Dipole moment (field-independent basis, Debye):
    X=              2.0011    Y=              6.7009    Z=              1.9845  Tot=              7.2694
 Quadrupole moment (field-independent basis, Debye-Ang):
   XX=            -98.6756   YY=            -94.5325   ZZ=            -96.4632
   XY=             -5.8767   XZ=             -7.3169   YZ=              2.6464

  Exact polarizability:     189.643      -2.110     133.584      -0.965      -0.549      89.511
 Approx polarizability:     198.599       1.824     184.376       0.717      -3.569     122.921

                      1                      2                      3
                      A                      A                      A
 Frequencies --     16.4590                49.2015                81.9650
 Red. masses --      6.4364                 4.0986                 1.3715
 Frc consts  --      0.0010                 0.0058                 0.0054
 IR Inten    --      2.6186                 0.6097                 1.2463

                      4                      5                      6
                      A                      A                      A
 Frequencies --     92.9873                95.6434               106.1134
 Red. masses --      1.2077                 6.3896                 2.1789
 Frc consts  --      0.0062                 0.0344                 0.0145
 IR Inten    --      0.8444                 1.3796                 1.6728

                      7                      8                      9
                      A                      A                      A
 Frequencies --    142.9670               161.9629               177.0291
 Red. masses --      9.0631                 4.6526                 4.6995
 Frc consts  --      0.1091                 0.0719                 0.0868
 IR Inten    --      1.9203                21.2618                 8.7209

                     10                     11                     12
                      A                      A                      A
 Frequencies --    241.9360               247.1909               272.9467
 Red. masses --      4.2221                 4.8516                 3.6825
 Frc consts  --      0.1456                 0.1747                 0.1616
 IR Inten    --      6.9407                 2.9866                13.2630

                     13                     14                     15
                      A                      A                      A
 Frequencies --    291.6293               316.7450               368.1681
 Red. masses --      2.8180                 3.1151                 4.2549
 Frc consts  --      0.1412                 0.1841                 0.3398
 IR Inten    --      3.4475                 8.3722                 4.9628

                     16                     17                     18
                      A                      A                      A
 Frequencies --    404.6907               450.2785               470.7470
 Red. masses --      4.0521                 2.9970                 7.0907
 Frc consts  --      0.3910                 0.3580                 0.9258
 IR Inten    --      4.4611                19.5910                14.7672

                     19                     20                     21
                      A                      A                      A
 Frequencies --    503.5319               541.5624               577.2600
 Red. masses --     10.2359                 6.8738                 3.8182
 Frc consts  --      1.5291                 1.1878                 0.7496
 IR Inten    --     14.8685                29.9546                14.5071

                     22                     23                     24
                      A                      A                      A
 Frequencies --    601.9390               612.5711               650.9410
 Red. masses --      3.9296                 7.6467                 4.3621
 Frc consts  --      0.8389                 1.6906                 1.0890
 IR Inten    --      2.5522                 7.8766                59.8630

                     25                     26                     27
                      A                      A                      A
 Frequencies --    658.7346               684.5683               717.4116
 Red. masses --      5.8552                 2.4217                 7.5738
 Frc consts  --      1.4970                 0.6687                 2.2967
 IR Inten    --     11.1639               612.8600                73.0800

                     28                     29                     30
                      A                      A                      A
 Frequencies --    767.6236               883.8018               951.9857
 Red. masses --      9.7220                 3.9348                 6.7403
 Frc consts  --      3.3752                 1.8108                 3.5991
 IR Inten    --     26.8578                48.2338                18.9532

                     31                     32                     33
                      A                      A                      A
 Frequencies --   1011.6718              1032.4747              1070.5663
 Red. masses --      6.7150                 1.6895                 1.8375
 Frc consts  --      4.0493                 1.0611                 1.2408
 IR Inten    --      4.4161                41.3099                 4.7275

                     34                     35                     36
                      A                      A                      A
 Frequencies --   1087.9517              1115.3300              1141.5928
 Red. masses --      2.0665                 1.2556                 6.0424
 Frc consts  --      1.4411                 0.9203                 4.6396
 IR Inten    --     28.4592                 0.9385                18.8612

                     37                     38                     39
                      A                      A                      A
 Frequencies --   1158.3916              1193.1656              1294.5258
 Red. masses --      1.2939                12.1102                 3.5845
 Frc consts  --      1.0229                10.1579                 3.5392
 IR Inten    --      0.5068               251.8508               322.9822

                     40                     41                     42
                      A                      A                      A
 Frequencies --   1377.3986              1411.0784              1416.3612
 Red. masses --      3.1856                10.6553                 2.9733
 Frc consts  --      3.5609                12.5003                 3.5143
 IR Inten    --     95.1963               185.6882               118.8911

                     43                     44                     45
                      A                      A                      A
 Frequencies --   1435.9010              1462.8419              1491.1849
 Red. masses --      2.4570                 1.3671                 1.0576
 Frc consts  --      2.9848                 1.7236                 1.3856
 IR Inten    --    162.4564                84.1359                20.4799

                     46                     47                     48
                      A                      A                      A
 Frequencies --   1496.6004              1497.9724              1529.0814
 Red. masses --      1.0463                 1.0394                 1.0902
 Frc consts  --      1.3807                 1.3742                 1.5018
 IR Inten    --      7.0825                16.5665                 2.1051

                     49                     50                     51
                      A                      A                      A
 Frequencies --   1600.2488              1624.6933              1634.5934
 Red. masses --      7.7222                 1.1132                12.7549
 Frc consts  --     11.6511                 1.7313                20.0792
 IR Inten    --    674.0946                45.8275               208.7450

                     52                     53                     54
                      A                      A                      A
 Frequencies --   1778.7075              3097.1234              3112.1162
 Red. masses --     10.9567                 1.0369                 1.0320
 Frc consts  --     20.4240                 5.8601                 5.8891
 IR Inten    --    220.9143                 1.2088                18.9221

                     55                     56                     57
                      A                      A                      A
 Frequencies --   3165.3026              3187.5895              3212.6727
 Red. masses --      1.1002                 1.1064                 1.1039
 Frc consts  --      6.4945                 6.6236                 6.7132
 IR Inten    --      3.7817                 4.3947                 8.4742

                     58                     59                     60
                      A                      A                      A
 Frequencies --   3227.4651              3545.4223              3662.4917
 Red. masses --      1.1060                 1.0468                 1.1004
 Frc consts  --      6.7879                 7.7525                 8.6969
 IR Inten    --      0.6590                57.5722                63.1591

 - Thermochemistry -
 -------------------
 Temperature   298.150 Kelvin.  Pressure   1.00000 Atm.
 Atom     1 has atomic number  6 and mass  12.00000

 Molecular mass:   236.00378 amu.
 Principal axes and moments of inertia in atomic units:
                           1         2         3
     Eigenvalues --  1461.632555635.116796696.74148
           X            0.99998  -0.00325  -0.00449
           Y            0.00327   0.99998   0.00579
           Z            0.00447  -0.00581   0.99997
 This molecule is an asymmetric top.
 Rotational symmetry number  1.
 Warning -- assumption of classical behavior for rotation
           may cause significant error
 Rotational temperatures (Kelvin)      0.05926     0.01537     0.01293
 Rotational constants (GHZ):           1.23474     0.32027     0.26950
 Zero-point vibrational energy     408005.0 (Joules/Mol)
                                   97.51553 (Kcal/Mol)
 Warning -- explicit consideration of  23 degrees of freedom as
           vibrations may cause significant error
 Vibrational temperatures:     23.68    70.79   117.93   133.79   137.61
          (Kelvin)            152.67   205.70   233.03   254.71   348.09
                              355.65   392.71   419.59   455.73   529.71
                              582.26   647.85   677.30   724.47   779.19
                              830.55   866.06   881.35   936.56   947.77
                              984.94  1032.20  1104.44  1271.59  1369.70
                             1455.57  1485.50  1540.31  1565.32  1604.71
                             1642.50  1666.67  1716.70  1862.53  1981.77
                             2030.23  2037.83  2065.94  2104.70  2145.48
                             2153.27  2155.25  2200.01  2302.40  2337.57
                             2351.82  2559.16  4456.07  4477.64  4554.16
                             4586.23  4622.32  4643.60  5101.07  5269.51

 Zero-point correction=                           0.155401 (Hartree/Particle)
 Thermal correction to Energy=                    0.170128
 Thermal correction to Enthalpy=                  0.171072
 Thermal correction to Gibbs Free Energy=         0.111646
 Sum of electronic and zero-point Energies=          -1435.855268
 Sum of electronic and thermal Energies=             -1435.840542
 Sum of electronic and thermal Enthalpies=           -1435.839598
 Sum of electronic and thermal Free Energies=        -1435.899024

                     E (Thermal)             CV                S
                      KCal/Mol        Cal/Mol-Kelvin    Cal/Mol-Kelvin
 Total                  106.757             51.722            125.073
 Electronic               0.000              0.000              0.000
 Translational            0.889              2.981             42.278
 Rotational               0.889              2.981             32.378
 Vibrational            104.979             45.761             50.417
 Vibration     1          0.593              1.986              7.021
 Vibration     2          0.595              1.978              4.849
 Vibration     3          0.600              1.961              3.843
 Vibration     4          0.602              1.954              3.596
 Vibration     5          0.603              1.952              3.541
 Vibration     6          0.605              1.944              3.339
 Vibration     7          0.616              1.910              2.764
 Vibration     8          0.622              1.889              2.527
 Vibration     9          0.628              1.871              2.360
 Vibration    10          0.658              1.776              1.789
 Vibration    11          0.661              1.767              1.751
 Vibration    12          0.676              1.723              1.577
 Vibration    13          0.687              1.689              1.464
 Vibration    14          0.704              1.642              1.327
 Vibration    15          0.741              1.538              1.087
 Vibration    16          0.770              1.460              0.946
 Vibration    17          0.809              1.360              0.795
 Vibration    18          0.828              1.315              0.735
 Vibration    19          0.859              1.242              0.649
 Vibration    20          0.897              1.158              0.562
 Vibration    21          0.934              1.080              0.490
 Vibration    22          0.960              1.028              0.446
 Vibration    23          0.972              1.005              0.429

                           ! Non-Optimized Parameters !
 Normal termination of Gaussian 16 at Sat May 21 13:10:58 2022.
