 Gaussian 16, Revision C.01,
 Gaussian 16:  ES64L-G16RevC.01  3-Jul-2019

 --------------------------------------------------
 #M062X/gen 6D INT(grid=ultrafine) OPT Freq=noraman
 --------------------------------------------------

 ----------
 HA.28.freq
 ----------
 Symbolic Z-matrix:
 Charge =  0 Multiplicity = 1

 SCF Done:  E(RM062X) =  -2530.92510038     A.U. after   17 cycles
 SCF Done:  E(RM062X) =  -2530.92800433     A.U. after   15 cycles
 SCF Done:  E(RM062X) =  -2530.92849671     A.U. after   15 cycles
 SCF Done:  E(RM062X) =  -2530.92868488     A.U. after   14 cycles
 SCF Done:  E(RM062X) =  -2530.92883609     A.U. after   15 cycles
 SCF Done:  E(RM062X) =  -2530.92898503     A.U. after   15 cycles
 SCF Done:  E(RM062X) =  -2530.92903072     A.U. after   13 cycles
 SCF Done:  E(RM062X) =  -2530.92916188     A.U. after   14 cycles
 SCF Done:  E(RM062X) =  -2530.92923751     A.U. after   14 cycles
 SCF Done:  E(RM062X) =  -2530.92924836     A.U. after   12 cycles
 SCF Done:  E(RM062X) =  -2530.92959296     A.U. after   13 cycles
 SCF Done:  E(RM062X) =  -2530.92962987     A.U. after   14 cycles
 SCF Done:  E(RM062X) =  -2530.92967240     A.U. after   15 cycles
 SCF Done:  E(RM062X) =  -2530.92967271     A.U. after   15 cycles
 SCF Done:  E(RM062X) =  -2530.92968105     A.U. after   13 cycles
 SCF Done:  E(RM062X) =  -2530.92968488     A.U. after   13 cycles
 SCF Done:  E(RM062X) =  -2530.92968627     A.U. after   13 cycles
 SCF Done:  E(RM062X) =  -2530.92968658     A.U. after   12 cycles
 SCF Done:  E(RM062X) =  -2530.92968658     A.U. after   10 cycles
 Optimization completed.
    -- Stationary point found.
 Normal termination of Gaussian 16 at Wed Jun 29 20:36:08 2022.

 ------------------------------------------------------------------
 #N Geom=AllCheck Guess=TCheck SCRF=Check GenChk RM062X/ChkBas Freq
 ------------------------------------------------------------------

 Structure from the checkpoint file:  "/jobfs/48815992.gadi-pbs/Gau-3858080.chk"
 ----------
 HA.28.freq
 ----------
 Charge =  0 Multiplicity = 1

                         Standard orientation:
 ---------------------------------------------------------------------
 Center     Atomic      Atomic             Coordinates (Angstroms)
 Number     Number       Type             X           Y           Z
 ---------------------------------------------------------------------
      1          6           0       -2.124973   -0.029452   -0.064035
      2          6           0       -1.822009    1.330178   -0.233053
      3         17           0       -3.062505    2.545976   -0.186257
      4          6           0       -0.520262    1.753772   -0.428116
      5          1           0       -0.313921    2.810016   -0.570282
      6          6           0        0.534072    0.825747   -0.468465
      7          6           0        0.219493   -0.526646   -0.274725
      8         16           0        1.506861   -1.738727   -0.200686
      9          6           0       -1.088473   -0.952247   -0.076010
     10          1           0       -1.308244   -2.003448    0.094071
     11         16           0       -3.793136   -0.658081    0.141704
     12          8           0       -4.605997   -0.118282   -0.927600
     13          8           0       -3.644764   -2.082148    0.373332
     14          7           0       -4.393524   -0.028525    1.551596
     15          1           0       -4.534677    0.977774    1.516968
     16          1           0       -3.886132   -0.340962    2.375306
     17          7           0        1.823727    1.272855   -0.684962
     18          6           0        2.939663    0.344473   -0.718274
     19          7           0        2.767728   -0.714583    0.292513
     20          8           0        1.237092   -2.669422    0.879871
     21          8           0        1.780216   -2.255932   -1.536947
     22          6           0        4.236571    1.119255   -0.557559
     23         17           0        4.347277    1.967075    1.016988
     24          1           0        2.031240    2.155102   -0.227009
     25          1           0        2.987642   -0.111139   -1.722117
     26          1           0        4.287397    1.876768   -1.341219
     27          1           0        5.099350    0.461120   -0.645062
     28          6           0        3.970625   -1.499732    0.614442
     29          1           0        4.645493   -0.869527    1.196259
     30          1           0        4.477736   -1.880898   -0.282437
     31          1           0        3.667262   -2.341815    1.238301
 ---------------------------------------------------------------------

 SCF Done:  E(RM062X) =  -2530.92968658     A.U. after    2 cycles

 The electronic state is 1-A.
 Alpha  occ. eigenvalues -- -102.70896-102.69765 -90.18196 -90.18108 -19.66433
 Alpha  occ. eigenvalues --  -19.66103 -19.65416 -19.65238 -14.82908 -14.82739
 Alpha  occ. eigenvalues --  -14.81150 -10.67686 -10.66998 -10.66235 -10.65670
 Alpha  occ. eigenvalues --  -10.62143 -10.61999 -10.61577 -10.60892 -10.60698
 Alpha  occ. eigenvalues --   -9.85536  -9.84442  -8.49303  -8.48978  -7.57947
 Alpha  occ. eigenvalues --   -7.57278  -7.57236  -7.56845  -7.56179  -7.56155
 Alpha  occ. eigenvalues --   -6.41495  -6.41438  -6.41379  -6.41195  -6.41144
 Alpha  occ. eigenvalues --   -6.41086  -1.26593  -1.25927  -1.14810  -1.14448
 Alpha  occ. eigenvalues --   -1.13208  -1.06513  -1.04170  -1.03275  -1.00189
 Alpha  occ. eigenvalues --   -0.97958  -0.91349  -0.90015  -0.86351  -0.83493
 Alpha  occ. eigenvalues --   -0.78193  -0.76799  -0.74993  -0.73221  -0.68694
 Alpha  occ. eigenvalues --   -0.67409  -0.65181  -0.63910  -0.63027  -0.61234
 Alpha  occ. eigenvalues --   -0.59660  -0.59214  -0.58091  -0.56487  -0.56431
 Alpha  occ. eigenvalues --   -0.55674  -0.55230  -0.54311  -0.53336  -0.52570
 Alpha  occ. eigenvalues --   -0.51818  -0.50889  -0.50114  -0.49228  -0.48247
 Alpha  occ. eigenvalues --   -0.45909  -0.43793  -0.43437  -0.42567  -0.41885
 Alpha  occ. eigenvalues --   -0.41473  -0.41071  -0.40858  -0.40692  -0.40225
 Alpha  occ. eigenvalues --   -0.39473  -0.39387  -0.38998  -0.37928  -0.35489
 Alpha  occ. eigenvalues --   -0.34331  -0.31225
 Alpha virt. eigenvalues --   -0.03946  -0.03085  -0.00971  -0.00377   0.00386
 Alpha virt. eigenvalues --    0.01137   0.01769   0.02433   0.02628   0.03629
 Alpha virt. eigenvalues --    0.04128   0.04436   0.04737   0.05332   0.05761

 Mulliken charges:
               1
     1  C   -2.697493
     2  C    1.412578
     3  Cl   0.256175
     4  C   -1.184998
     5  H    0.242125
     6  C    0.981892
     7  C    0.235665
     8  S    1.626107
     9  C   -0.443324
    10  H    0.313409
    11  S    1.488231
    12  O   -0.381252
    13  O   -0.553453
    14  N   -0.907549
    15  H    0.444834
    16  H    0.447513
    17  N   -0.477215
    18  C   -0.306360
    19  N   -0.424461
    20  O   -0.529376
    21  O   -0.375390
    22  C   -0.854192
    23  Cl   0.105500
    24  H    0.427456
    25  H    0.300265
    26  H    0.293066
    27  H    0.290968
    28  C   -0.510829
    29  H    0.249976
    30  H    0.258491
    31  H    0.271639
 Sum of Mulliken charges =  -0.00000

 Dipole moment (field-independent basis, Debye):
    X=              6.4797    Y=              6.3749    Z=              1.8160  Tot=              9.2695
 Quadrupole moment (field-independent basis, Debye-Ang):
   XX=           -146.6976   YY=           -154.8520   ZZ=           -147.0804
   XY=             -8.2114   XZ=            -16.7039   YZ=             -2.6783

  Exact polarizability:     263.731      -6.015     197.175      -7.148      -2.590     141.535
 Approx polarizability:     274.814      -6.175     260.684      -9.411      -5.803     200.675

                      1                      2                      3
                      A                      A                      A
 Frequencies --     18.4534                45.5596                61.2986
 Red. masses --     10.4714                 8.3347                 7.7802
 Frc consts  --      0.0021                 0.0102                 0.0172
 IR Inten    --      1.6166                 3.0280                 0.6653

                      4                      5                      6
                      A                      A                      A
 Frequencies --     76.9240                93.3290               114.0812
 Red. masses --      5.7156                11.7409                 5.3131
 Frc consts  --      0.0199                 0.0603                 0.0407
 IR Inten    --      2.9626                 3.2688                 1.0791

                      7                      8                      9
                      A                      A                      A
 Frequencies --    127.2938               159.0088               178.9637
 Red. masses --      8.7805                 5.4391                12.5095
 Frc consts  --      0.0838                 0.0810                 0.2361
 IR Inten    --      0.8404                 4.3078                 2.6324

                     10                     11                     12
                      A                      A                      A
 Frequencies --    190.5414               199.7303               215.8332
 Red. masses --      9.9822                 8.5550                 3.5305
 Frc consts  --      0.2135                 0.2011                 0.0969
 IR Inten    --      6.6752                 1.5791                20.8093

                     13                     14                     15
                      A                      A                      A
 Frequencies --    238.0125               245.5183               272.8142
 Red. masses --      5.2876                 7.1473                 1.2135
 Frc consts  --      0.1765                 0.2538                 0.0532
 IR Inten    --      3.9289                 7.9893                 1.6770

                     16                     17                     18
                      A                      A                      A
 Frequencies --    287.4820               306.7565               313.0345
 Red. masses --      2.8486                 4.1292                 2.8944
 Frc consts  --      0.1387                 0.2289                 0.1671
 IR Inten    --      5.6702                10.7243                15.1438

                     19                     20                     21
                      A                      A                      A
 Frequencies --    343.4484               353.3408               385.7872
 Red. masses --      3.7346                 2.6639                 3.3305
 Frc consts  --      0.2595                 0.1960                 0.2921
 IR Inten    --     10.7346                 1.4833                25.6688

                     22                     23                     24
                      A                      A                      A
 Frequencies --    390.4953               419.1755               444.9494
 Red. masses --      3.1382                 3.3203                 3.8363
 Frc consts  --      0.2819                 0.3437                 0.4475
 IR Inten    --     28.5476                94.2950                 9.3670

                     25                     26                     27
                      A                      A                      A
 Frequencies --    451.0604               474.8263               492.3196
 Red. masses --      2.4824                 4.8235                 7.5498
 Frc consts  --      0.2976                 0.6407                 1.0782
 IR Inten    --     17.4240                 2.0705                10.4945

                     28                     29                     30
                      A                      A                      A
 Frequencies --    505.5949               522.4000               536.6952
 Red. masses --      6.2806                 7.4686                 5.8711
 Frc consts  --      0.9459                 1.2009                 0.9964
 IR Inten    --     38.7473                11.9582                77.0603

                     31                     32                     33
                      A                      A                      A
 Frequencies --    553.2733               589.2071               606.9453
 Red. masses --      5.9611                 4.0687                 4.0475
 Frc consts  --      1.0751                 0.8322                 0.8785
 IR Inten    --     21.6107                47.3680               105.3571

                     34                     35                     36
                      A                      A                      A
 Frequencies --    662.5051               664.6076               686.5714
 Red. masses --      6.4771                 3.7301                 6.9056
 Frc consts  --      1.6750                 0.9707                 1.9179
 IR Inten    --     79.9304               185.2791                61.5540

                     37                     38                     39
                      A                      A                      A
 Frequencies --    705.9231               716.2994               732.9372
 Red. masses --      5.5314                 4.5771                 4.4084
 Frc consts  --      1.6241                 1.3836                 1.3953
 IR Inten    --    167.5422                11.7945                40.7769

                     40                     41                     42
                      A                      A                      A
 Frequencies --    798.2218               803.0965               870.1176
 Red. masses --      4.3417                 5.3286                 3.5234
 Frc consts  --      1.6299                 2.0249                 1.5717
 IR Inten    --     65.5582                20.9700                22.4558

                     43                     44                     45
                      A                      A                      A
 Frequencies --    881.9261               898.9781               940.9805
 Red. masses --      1.6108                 2.5925                 2.7769
 Frc consts  --      0.7382                 1.2344                 1.4487
 IR Inten    --     41.4307                95.3344                11.7783

                     46                     47                     48
                      A                      A                      A
 Frequencies --    960.1584               988.9335              1082.1640
 Red. masses --      1.3611                 4.5663                 2.1735
 Frc consts  --      0.7393                 2.6312                 1.4997
 IR Inten    --      7.1528               143.4746                 5.8777

                     49                     50                     51
                      A                      A                      A
 Frequencies --   1104.2335              1112.6628              1148.1289
 Red. masses --      4.6248                 1.2571                 1.6068
 Frc consts  --      3.3225                 0.9170                 1.2479
 IR Inten    --     65.6626                 0.9574                 8.9958

                     52                     53                     54
                      A                      A                      A
 Frequencies --   1156.5641              1158.8675              1173.3084
 Red. masses --      2.6662                 2.0395                 3.1928
 Frc consts  --      2.1012                 1.6137                 2.5897
 IR Inten    --     27.5011                25.6185               172.7250

                     55                     56                     57
                      A                      A                      A
 Frequencies --   1180.9961              1196.4114              1240.8143
 Red. masses --      4.0685                 8.2694                 1.8577
 Frc consts  --      3.3433                 6.9740                 1.6852
 IR Inten    --     48.0539               299.4254                17.0924

                     58                     59                     60
                      A                      A                      A
 Frequencies --   1263.8116              1285.6455              1309.2314
 Red. masses --      1.4416                 1.4971                 3.0313
 Frc consts  --      1.3566                 1.4580                 3.0614
 IR Inten    --     21.2154                92.4566                31.7630

                     61                     62                     63
                      A                      A                      A
 Frequencies --   1334.2047              1352.6057              1360.4661
 Red. masses --      2.1374                 5.4554                 2.5015
 Frc consts  --      2.2418                 5.8806                 2.7278
 IR Inten    --     16.8168               197.3478                 4.7509

                     64                     65                     66
                      A                      A                      A
 Frequencies --   1376.9592              1402.9880              1407.1832
 Red. masses --      1.7816                 2.0841                 2.6003
 Frc consts  --      1.9902                 2.4170                 3.0337
 IR Inten    --     19.8131               143.0528                66.8869

                     67                     68                     69
                      A                      A                      A
 Frequencies --   1436.6004              1470.7964              1499.6125
 Red. masses --      3.0719                 1.2008                 1.0881
 Frc consts  --      3.7354                 1.5304                 1.4417
 IR Inten    --     27.6080                 0.8323                22.7126

                     70                     71                     72
                      A                      A                      A
 Frequencies --   1523.5213              1528.9821              1534.7587
 Red. masses --      2.4161                 1.0736                 1.0874
 Frc consts  --      3.3041                 1.4787                 1.5091
 IR Inten    --     21.1885                12.9036                46.5588

                     73                     74                     75
                      A                      A                      A
 Frequencies --   1551.5551              1618.2294              1640.7775
 Red. masses --      2.1255                 1.1134                 5.7903
 Frc consts  --      3.0147                 1.7179                 9.1843
 IR Inten    --    215.6220                53.7222                62.3037

                     76                     77                     78
                      A                      A                      A
 Frequencies --   1676.5028              3025.4238              3060.4121
 Red. masses --      7.3271                 1.0826                 1.0464
 Frc consts  --     12.1337                 5.8385                 5.7744
 IR Inten    --    309.0829                19.4880                40.9526

                     79                     80                     81
                      A                      A                      A
 Frequencies --   3152.7728              3165.2993              3200.8286
 Red. masses --      1.0620                 1.0898                 1.1047
 Frc consts  --      6.2193                 6.4331                 6.6682
 IR Inten    --      5.4719                 5.7455                 0.6033

                     82                     83                     84
                      A                      A                      A
 Frequencies --   3218.4493              3236.8267              3239.1468
 Red. masses --      1.1070                 1.0917                 1.0925
 Frc consts  --      6.7559                 6.7391                 6.7535
 IR Inten    --      0.5457                15.5617                 2.3573

                     85                     86                     87
                      A                      A                      A
 Frequencies --   3544.9113              3584.7426              3665.2554
 Red. masses --      1.0463                 1.0763                 1.1006
 Frc consts  --      7.7470                 8.1488                 8.7115
 IR Inten    --     39.8813                75.7130                51.1123

 - Thermochemistry -
 -------------------
 Temperature   298.150 Kelvin.  Pressure   1.00000 Atm.
 Atom     1 has atomic number  6 and mass  12.00000

 Molecular mass:   358.95681 amu.
 Principal axes and moments of inertia in atomic units:
                           1         2         3
     Eigenvalues --  3953.01305********************
           X            0.99996  -0.00377  -0.00834
           Y            0.00366   0.99992  -0.01216
           Z            0.00839   0.01213   0.99989
 This molecule is an asymmetric top.
 Rotational symmetry number  1.
 Warning -- assumption of classical behavior for rotation
           may cause significant error
 Rotational temperatures (Kelvin)      0.02191     0.00687     0.00568
 Rotational constants (GHZ):           0.45655     0.14311     0.11836
 Zero-point vibrational energy     578681.9 (Joules/Mol)
                                  138.30830 (Kcal/Mol)
 Warning -- explicit consideration of  33 degrees of freedom as
           vibrations may cause significant error
 Vibrational temperatures:     26.55    65.55    88.20   110.68   134.28
          (Kelvin)            164.14   183.15   228.78   257.49   274.15
                              287.37   310.54   342.45   353.25   392.52
                              413.62   441.35   450.39   494.15   508.38
                              555.06   561.84   603.10   640.18   648.98
                              683.17   708.34   727.44   751.62   772.18
                              796.04   847.74   873.26   953.20   956.22
                              987.82  1015.67  1030.60  1054.53  1148.46
                             1155.48  1251.91  1268.89  1293.43  1353.86
                             1381.45  1422.85  1556.99  1588.75  1600.87
                             1651.90  1664.04  1667.35  1688.13  1699.19
                             1721.37  1785.26  1818.34  1849.76  1883.69
                             1919.62  1946.10  1957.41  1981.14  2018.59
                             2024.62  2066.95  2116.15  2157.61  2192.01
                             2199.86  2208.18  2232.34  2328.27  2360.71
                             2412.11  4352.91  4403.25  4536.14  4554.16
                             4605.28  4630.63  4657.07  4660.41  5100.34
                             5157.65  5273.49

 Zero-point correction=                           0.220408 (Hartree/Particle)
 Thermal correction to Energy=                    0.239596
 Thermal correction to Enthalpy=                  0.240540
 Thermal correction to Gibbs Free Energy=         0.171883
 Sum of electronic and zero-point Energies=          -2530.709278
 Sum of electronic and thermal Energies=             -2530.690091
 Sum of electronic and thermal Enthalpies=           -2530.689147
 Sum of electronic and thermal Free Energies=        -2530.757804

                     E (Thermal)             CV                S
                      KCal/Mol        Cal/Mol-Kelvin    Cal/Mol-Kelvin
 Total                  150.349             72.289            144.502
 Electronic               0.000              0.000              0.000
 Translational            0.889              2.981             43.528
 Rotational               0.889              2.981             34.985
 Vibrational            148.571             66.328             65.989
 Vibration     1          0.593              1.986              6.794
 Vibration     2          0.595              1.979              5.001
 Vibration     3          0.597              1.973              4.415
 Vibration     4          0.599              1.965              3.968
 Vibration     5          0.602              1.954              3.589
 Vibration     6          0.607              1.938              3.198
 Vibration     7          0.611              1.926              2.987
 Vibration     8          0.621              1.893              2.562
 Vibration     9          0.629              1.868              2.339
 Vibration    10          0.634              1.853              2.223
 Vibration    11          0.638              1.840              2.136
 Vibration    12          0.645              1.817              1.994
 Vibration    13          0.656              1.782              1.818
 Vibration    14          0.660              1.770              1.763
 Vibration    15          0.676              1.723              1.578
 Vibration    16          0.685              1.697              1.489
 Vibration    17          0.697              1.661              1.380
 Vibration    18          0.701              1.649              1.346
 Vibration    19          0.722              1.589              1.196
 Vibration    20          0.730              1.568              1.151
 Vibration    21          0.754              1.501              1.016
 Vibration    22          0.758              1.490              0.998
 Vibration    23          0.782              1.429              0.895
 Vibration    24          0.804              1.372              0.811
 Vibration    25          0.810              1.359              0.793
 Vibration    26          0.832              1.306              0.724
 Vibration    27          0.848              1.267              0.678
 Vibration    28          0.861              1.238              0.644
 Vibration    29          0.877              1.200              0.604
 Vibration    30          0.892              1.169              0.572
 Vibration    31          0.909              1.133              0.537
 Vibration    32          0.946              1.055              0.469
 Vibration    33          0.966              1.017              0.438

 Optimization completed.
    -- Stationary point found.
 Normal termination of Gaussian 16 at Wed Jun 29 20:52:56 2022.
