 Gaussian 16, Revision C.01,
 Gaussian 16:  ES64L-G16RevC.01  3-Jul-2019

 --------------------------------------------------
 #M062X/gen 6D INT(grid=ultrafine) OPT Freq=noraman
 --------------------------------------------------

 ----------
 HA.23.freq
 ----------
 Symbolic Z-matrix:
 Charge =  0 Multiplicity = 1

 SCF Done:  E(RM062X) =  -1244.11250310     A.U. after   15 cycles
 SCF Done:  E(RM062X) =  -1244.11451731     A.U. after   14 cycles
 SCF Done:  E(RM062X) =  -1244.11508185     A.U. after   13 cycles
 SCF Done:  E(RM062X) =  -1244.11554313     A.U. after   14 cycles
 SCF Done:  E(RM062X) =  -1244.11614125     A.U. after   14 cycles
 SCF Done:  E(RM062X) =  -1244.11670631     A.U. after   16 cycles
 SCF Done:  E(RM062X) =  -1244.11690480     A.U. after   12 cycles
 SCF Done:  E(RM062X) =  -1244.11695523     A.U. after   12 cycles
 SCF Done:  E(RM062X) =  -1244.11698298     A.U. after   13 cycles
 SCF Done:  E(RM062X) =  -1244.11699133     A.U. after   12 cycles
 SCF Done:  E(RM062X) =  -1244.11707642     A.U. after   14 cycles
 SCF Done:  E(RM062X) =  -1244.11709694     A.U. after   13 cycles
 SCF Done:  E(RM062X) =  -1244.11711123     A.U. after   12 cycles
 SCF Done:  E(RM062X) =  -1244.11712952     A.U. after   12 cycles
 SCF Done:  E(RM062X) =  -1244.11714141     A.U. after   11 cycles
 SCF Done:  E(RM062X) =  -1244.11715596     A.U. after   12 cycles
 SCF Done:  E(RM062X) =  -1244.11715770     A.U. after   10 cycles
 SCF Done:  E(RM062X) =  -1244.11715783     A.U. after   10 cycles
 SCF Done:  E(RM062X) =  -1244.11715791     A.U. after    9 cycles
 Optimization completed.
    -- Stationary point found.
 Normal termination of Gaussian 16 at Thu Jun 23 15:04:18 2022.

 ------------------------------------------------------------------
 #N Geom=AllCheck Guess=TCheck SCRF=Check GenChk RM062X/ChkBas Freq
 ------------------------------------------------------------------

 Structure from the checkpoint file:  "/jobfs/45190758.gadi-pbs/Gau-2476846.chk"
 ----------
 HA.23.freq
 ----------
 Charge =  0 Multiplicity = 1

                         Standard orientation:
 ---------------------------------------------------------------------
 Center     Atomic      Atomic             Coordinates (Angstroms)
 Number     Number       Type             X           Y           Z
 ---------------------------------------------------------------------
      1          6           0        0.005615    0.147352   -0.019569
      2          6           0       -2.350842    0.160245    0.007508
      3          7           0       -3.694605   -0.076873   -0.056406
      4         16           0       -1.172860   -1.129690   -0.043896
      5         16           0        1.770883   -0.152140    0.050630
      6          8           0        2.112132   -0.370770    1.439674
      7          8           0        2.055061   -1.131864   -0.978074
      8          7           0        2.447502    1.276333   -0.407753
      9          1           0        2.217466    2.035643    0.230498
     10          7           0       -0.481425    1.339639    0.003531
     11          7           0       -1.840499    1.362644    0.020423
     12          1           0       -4.044966   -0.922960    0.371990
     13          1           0        2.235041    1.514099   -1.374005
     14          1           0       -4.258916    0.745789    0.124774
 ---------------------------------------------------------------------

 SCF Done:  E(RM062X) =  -1244.11715791     A.U. after    1 cycles

 The electronic state is 1-A.
 Alpha  occ. eigenvalues --  -90.18981 -90.00294 -19.66154 -19.66076 -14.83664
 Alpha  occ. eigenvalues --  -14.82526 -14.81784 -14.81375 -10.69149 -10.65882
 Alpha  occ. eigenvalues --   -8.49864  -8.34846  -6.42082  -6.42016  -6.41986
 Alpha  occ. eigenvalues --   -6.26833  -6.26638  -6.26333  -1.26790  -1.18620
 Alpha  occ. eigenvalues --   -1.15096  -1.08089  -1.04675  -0.95355  -0.92367
 Alpha  occ. eigenvalues --   -0.79613  -0.72285  -0.70516  -0.65813  -0.63366
 Alpha  occ. eigenvalues --   -0.62789  -0.59282  -0.56285  -0.55582  -0.53852
 Alpha  occ. eigenvalues --   -0.52832  -0.45903  -0.43874  -0.43006  -0.42015
 Alpha  occ. eigenvalues --   -0.40300  -0.39975  -0.38435  -0.37653  -0.36635
 Alpha  occ. eigenvalues --   -0.32104
 Alpha virt. eigenvalues --   -0.02871  -0.01511   0.00293   0.01383   0.03460
 Alpha virt. eigenvalues --    0.04035   0.04210   0.04704   0.06122   0.06508
 Alpha virt. eigenvalues --    0.06779   0.07167   0.08241   0.09284   0.10023

 Mulliken charges:
               1
     1  C   -0.836448
     2  C   -0.240937
     3  N   -0.690372
     4  S    0.615995
     5  S    1.604165
     6  O   -0.487639
     7  O   -0.520726
     8  N   -0.986921
     9  H    0.458433
    10  N   -0.065726
    11  N   -0.150762
    12  H    0.405230
    13  H    0.466117
    14  H    0.429592
 Sum of Mulliken charges =  -0.00000

 Dipole moment (field-independent basis, Debye):
    X=             -5.2335    Y=              0.8066    Z=             -0.3802  Tot=              5.3089
 Quadrupole moment (field-independent basis, Debye-Ang):
   XX=            -62.0892   YY=            -72.0272   ZZ=            -75.9018
   XY=             13.2518   XZ=             -7.1819   YZ=             -2.9654

  Exact polarizability:     125.764       1.961      91.241      -0.435       0.398      66.261
 Approx polarizability:     137.895      -0.269     136.836       0.500       2.801      91.820

                      1                      2                      3
                      A                      A                      A
 Frequencies --     23.4208                87.8268               137.2965
 Red. masses --      9.6711                 7.2209                 6.3182
 Frc consts  --      0.0031                 0.0328                 0.0702
 IR Inten    --     10.9761                 1.1360                20.4998

                      4                      5                      6
                      A                      A                      A
 Frequencies --    211.0413               263.3908               285.0891
 Red. masses --      3.9862                 3.5080                 2.0867
 Frc consts  --      0.1046                 0.1434                 0.0999
 IR Inten    --     18.1240                17.3140                 7.4055

                      7                      8                      9
                      A                      A                      A
 Frequencies --    296.0649               317.0345               389.3110
 Red. masses --      1.1059                 5.4102                 4.9849
 Frc consts  --      0.0571                 0.3204                 0.4451
 IR Inten    --     43.4467                 3.4690                 2.0620

                     10                     11                     12
                      A                      A                      A
 Frequencies --    411.5847               452.4024               499.9424
 Red. masses --      3.0697                 3.5965                11.2703
 Frc consts  --      0.3064                 0.4337                 1.6597
 IR Inten    --     33.7463                24.4613                26.2780

                     13                     14                     15
                      A                      A                      A
 Frequencies --    533.7762               570.1107               606.4648
 Red. masses --      1.8123                 4.9245                 8.2766
 Frc consts  --      0.3042                 0.9430                 1.7935
 IR Inten    --    288.5140                16.9315                16.0444

                     16                     17                     18
                      A                      A                      A
 Frequencies --    637.5554               653.9279               688.0958
 Red. masses --      7.2808                 5.2369                 6.4751
 Frc consts  --      1.7437                 1.3194                 1.8063
 IR Inten    --     16.2418                52.5401                 9.0063

                     19                     20                     21
                      A                      A                      A
 Frequencies --    732.2640               804.8890               890.8328
 Red. masses --      2.2970                10.3310                 3.3885
 Frc consts  --      0.7257                 3.9433                 1.5843
 IR Inten    --    537.8965                10.2762                24.8952

                     22                     23                     24
                      A                      A                      A
 Frequencies --   1090.9146              1109.6365              1123.5802
 Red. masses --      1.9892                11.0529                 1.2574
 Frc consts  --      1.3948                 8.0184                 0.9353
 IR Inten    --     17.5619                 5.4295                 1.9269

                     25                     26                     27
                      A                      A                      A
 Frequencies --   1184.8307              1216.3397              1371.7636
 Red. masses --     12.0300                 7.1592                 3.6412
 Frc consts  --      9.9501                 6.2406                 4.0369
 IR Inten    --    200.2695                20.4966                98.9581

                     28                     29                     30
                      A                      A                      A
 Frequencies --   1403.2704              1554.7649              1573.1535
 Red. masses --     13.1098                11.9659                 3.8459
 Frc consts  --     15.2100                17.0422                 5.6078
 IR Inten    --    248.1127                52.1900               161.8658

                     31                     32                     33
                      A                      A                      A
 Frequencies --   1631.0927              1677.0689              3536.3526
 Red. masses --      1.1088                 1.3702                 1.0476
 Frc consts  --      1.7381                 2.2705                 7.7187
 IR Inten    --     50.7188               233.1344                59.4594

                     34                     35                     36
                      A                      A                      A
 Frequencies --   3588.6480              3646.8628              3703.9490
 Red. masses --      1.0484                 1.0990                 1.1005
 Frc consts  --      7.9551                 8.6118                 8.8953
 IR Inten    --     94.9075                66.7720                60.8286

 - Thermochemistry -
 -------------------
 Temperature   298.150 Kelvin.  Pressure   1.00000 Atm.
 Atom     1 has atomic number  6 and mass  12.00000

 Molecular mass:   179.97757 amu.
 Principal axes and moments of inertia in atomic units:
                           1         2         3
     Eigenvalues --   712.823932760.534053094.68152
           X            0.99987   0.01437  -0.00705
           Y           -0.01451   0.99969  -0.02041
           Z            0.00676   0.02051   0.99977
 This molecule is an asymmetric top.
 Rotational symmetry number  1.
 Warning -- assumption of classical behavior for rotation
           may cause significant error
 Rotational temperatures (Kelvin)      0.12151     0.03138     0.02799
 Rotational constants (GHZ):           2.53182     0.65377     0.58318
 Zero-point vibrational energy     232700.9 (Joules/Mol)
                                   55.61685 (Kcal/Mol)
 Warning -- explicit consideration of  15 degrees of freedom as
           vibrations may cause significant error
 Vibrational temperatures:     33.70   126.36   197.54   303.64   378.96
          (Kelvin)            410.18   425.97   456.14   560.13   592.18
                              650.91   719.31   767.98   820.26   872.57
                              917.30   940.86   990.02  1053.56  1158.06
                             1281.71  1569.58  1596.52  1616.58  1704.71
                             1750.04  1973.66  2018.99  2236.96  2263.42
                             2346.78  2412.93  5088.02  5163.26  5247.02
                             5329.16

 Zero-point correction=                           0.088631 (Hartree/Particle)
 Thermal correction to Energy=                    0.098451
 Thermal correction to Enthalpy=                  0.099395
 Thermal correction to Gibbs Free Energy=         0.052173
 Sum of electronic and zero-point Energies=          -1244.028527
 Sum of electronic and thermal Energies=             -1244.018707
 Sum of electronic and thermal Enthalpies=           -1244.017763
 Sum of electronic and thermal Free Energies=        -1244.064985

                     E (Thermal)             CV                S
                      KCal/Mol        Cal/Mol-Kelvin    Cal/Mol-Kelvin
 Total                   61.779             35.548             99.387
 Electronic               0.000              0.000              0.000
 Translational            0.889              2.981             41.470
 Rotational               0.889              2.981             30.189
 Vibrational             60.001             29.586             27.729
 Vibration     1          0.593              1.985              6.321
 Vibration     2          0.601              1.958              3.708
 Vibration     3          0.614              1.916              2.841
 Vibration     4          0.643              1.824              2.035
 Vibration     5          0.670              1.740              1.639
 Vibration     6          0.683              1.701              1.503
 Vibration     7          0.690              1.681              1.439
 Vibration     8          0.704              1.641              1.325
 Vibration     9          0.757              1.493              1.003
 Vibration    10          0.776              1.445              0.921
 Vibration    11          0.811              1.356              0.789
 Vibration    12          0.855              1.250              0.658
 Vibration    13          0.889              1.175              0.579
 Vibration    14          0.926              1.096              0.504
 Vibration    15          0.965              1.018              0.439

                           ! Non-Optimized Parameters !
 Normal termination of Gaussian 16 at Thu Jun 23 15:06:30 2022.
