 Gaussian 16, Revision C.01,
 Gaussian 16:  ES64L-G16RevC.01  3-Jul-2019

 --------------------------------------------------
 #M062X/gen 6D INT(grid=ultrafine) OPT Freq=noraman
 --------------------------------------------------

 ----------
 HA.37.freq
 ----------
 Symbolic Z-matrix:
 Charge =  0 Multiplicity = 1

 SCF Done:  E(RM062X) =  -1867.12362164     A.U. after   17 cycles
 SCF Done:  E(RM062X) =  -1867.12588274     A.U. after   17 cycles
 SCF Done:  E(RM062X) =  -1867.12484983     A.U. after   17 cycles
 SCF Done:  E(RM062X) =  -1867.12653686     A.U. after   15 cycles
 SCF Done:  E(RM062X) =  -1867.12708664     A.U. after   16 cycles
 SCF Done:  E(RM062X) =  -1867.12723534     A.U. after   14 cycles
 SCF Done:  E(RM062X) =  -1867.12730713     A.U. after   15 cycles
 SCF Done:  E(RM062X) =  -1867.12733234     A.U. after   14 cycles
 SCF Done:  E(RM062X) =  -1867.12733656     A.U. after   14 cycles
 SCF Done:  E(RM062X) =  -1867.12734130     A.U. after   12 cycles
 SCF Done:  E(RM062X) =  -1867.12734213     A.U. after   12 cycles
 SCF Done:  E(RM062X) =  -1867.12734232     A.U. after   11 cycles
 SCF Done:  E(RM062X) =  -1867.12734253     A.U. after   11 cycles
 SCF Done:  E(RM062X) =  -1867.12734267     A.U. after   11 cycles
 Optimization completed.
    -- Stationary point found.
 Normal termination of Gaussian 16 at Sat Jul  2 17:30:15 2022.

 ------------------------------------------------------------------
 #N Geom=AllCheck Guess=TCheck SCRF=Check GenChk RM062X/ChkBas Freq
 ------------------------------------------------------------------

 Structure from the checkpoint file:  "/jobfs/50086557.gadi-pbs/Gau-1750472.chk"
 ----------
 HA.37.freq
 ----------
 Charge =  0 Multiplicity = 1

                         Standard orientation:
 ---------------------------------------------------------------------
 Center     Atomic      Atomic             Coordinates (Angstroms)
 Number     Number       Type             X           Y           Z
 ---------------------------------------------------------------------
      1          6           0        1.799102   -0.156412   -0.253420
      2          6           0        2.935914    0.578954    0.106273
      3         17           0        4.381792   -0.200188    0.646768
      4          6           0        2.914934    1.969655    0.027107
      5          1           0        3.807014    2.525330    0.296066
      6          6           0        1.759090    2.630422   -0.379001
      7          6           0        0.617173    1.905274   -0.712136
      8          6           0        0.658691    0.510362   -0.675676
      9         16           0        1.768353   -1.953266   -0.092226
     10          8           0        2.695460   -2.498765   -1.064425
     11          8           0        1.863946   -2.234904    1.327926
     12          7           0        0.268579   -2.451486   -0.555428
     13          1           0        0.066146   -2.404370   -1.548562
     14          1           0       -0.508233   -2.208996    0.055783
     15          1           0       -0.202672   -0.068455   -0.979778
     16          1           0        1.731959    3.714567   -0.434602
     17          6           0       -0.611333    2.670373   -1.102177
     18          7           0       -1.838916    2.074082   -0.856621
     19          8           0       -0.557087    3.764703   -1.629745
     20          7           0       -1.992363    1.098937    0.097739
     21          6           0       -2.420175    1.458544    1.464270
     22          6           0       -2.614762    0.066934    2.104462
     23          6           0       -2.909463   -0.823122    0.915232
     24          6           0       -2.543789   -0.137793   -0.250722
     25          6           0       -1.405087    2.347065    2.159083
     26          6           0       -2.657407   -0.708474   -1.512512
     27          6           0       -3.144814   -2.020497   -1.585603
     28          6           0       -3.498303   -2.723843   -0.435551
     29          6           0       -3.382914   -2.121391    0.827076
     30          1           0       -2.642136    2.665919   -1.073450
     31          1           0       -3.395349    1.974408    1.402679
     32          1           0       -3.404681    0.066208    2.859686
     33          1           0       -1.680426   -0.247669    2.590325
     34          1           0       -1.276228    3.296034    1.627105
     35          1           0       -0.434314    1.842909    2.213951
     36          1           0       -1.739805    2.577205    3.175295
     37          1           0       -2.383030   -0.150714   -2.403726
     38          1           0       -3.251718   -2.492848   -2.557869
     39          1           0       -3.870156   -3.740012   -0.515968
     40          1           0       -3.661276   -2.669372    1.723515
 ---------------------------------------------------------------------

 SCF Done:  E(RM062X) =  -1867.12734267     A.U. after    2 cycles

 The electronic state is 1-A.
 Alpha  occ. eigenvalues -- -102.68597 -90.17539 -19.64709 -19.64577 -19.64567
 Alpha  occ. eigenvalues --  -14.84507 -14.83782 -14.80656 -10.68938 -10.65199
 Alpha  occ. eigenvalues --  -10.61964 -10.61537 -10.61483 -10.60049 -10.59782
 Alpha  occ. eigenvalues --  -10.59403 -10.59229 -10.58401 -10.58295 -10.58158
 Alpha  occ. eigenvalues --  -10.58126 -10.57940 -10.57309 -10.56400  -9.83242
 Alpha  occ. eigenvalues --   -8.48370  -7.55662  -7.54972  -7.54939  -6.40606
 Alpha  occ. eigenvalues --   -6.40527  -6.40468  -1.25124  -1.20448  -1.15620
 Alpha  occ. eigenvalues --   -1.13555  -1.03333  -1.02795  -1.02297  -0.96948
 Alpha  occ. eigenvalues --   -0.96415  -0.90756  -0.89766  -0.87886  -0.87212
 Alpha  occ. eigenvalues --   -0.84658  -0.80078  -0.77448  -0.75403  -0.73051
 Alpha  occ. eigenvalues --   -0.72386  -0.71294  -0.69639  -0.68537  -0.64629
 Alpha  occ. eigenvalues --   -0.63693  -0.62747  -0.61116  -0.60373  -0.58758
 Alpha  occ. eigenvalues --   -0.57841  -0.57023  -0.56339  -0.54933  -0.54859
 Alpha  occ. eigenvalues --   -0.54115  -0.53186  -0.52969  -0.52028  -0.51335
 Alpha  occ. eigenvalues --   -0.50753  -0.49655  -0.48991  -0.47778  -0.47563
 Alpha  occ. eigenvalues --   -0.47088  -0.45746  -0.45508  -0.45034  -0.43073
 Alpha  occ. eigenvalues --   -0.42420  -0.41997  -0.41891  -0.40944  -0.39787
 Alpha  occ. eigenvalues --   -0.39121  -0.38894  -0.38518  -0.37292  -0.36589
 Alpha  occ. eigenvalues --   -0.35182  -0.34245  -0.33108  -0.32220  -0.28205
 Alpha virt. eigenvalues --   -0.04261  -0.01968  -0.00974  -0.00544   0.00552
 Alpha virt. eigenvalues --    0.00734   0.01060   0.01155   0.02277   0.02799
 Alpha virt. eigenvalues --    0.03160   0.03291   0.03760   0.03944   0.04785

 Mulliken charges:
               1
     1  C   -1.936957
     2  C    0.719043
     3  Cl   0.354553
     4  C   -0.010134
     5  H    0.242163
     6  C   -0.120052
     7  C    0.130387
     8  C   -0.260669
     9  S    1.437580
    10  O   -0.408329
    11  O   -0.439949
    12  N   -1.220106
    13  H    0.484000
    14  H    0.496860
    15  H    0.258180
    16  H    0.261523
    17  C    0.564831
    18  N   -0.586689
    19  O   -0.393659
    20  N   -0.019421
    21  C    0.067094
    22  C   -0.594881
    23  C    1.575700
    24  C   -0.979487
    25  C   -0.717093
    26  C   -0.432875
    27  C   -0.260489
    28  C    0.098345
    29  C   -1.125402
    30  H    0.446177
    31  H    0.223231
    32  H    0.246133
    33  H    0.264639
    34  H    0.243133
    35  H    0.257672
    36  H    0.234065
    37  H    0.244857
    38  H    0.218365
    39  H    0.214646
    40  H    0.223017
 Sum of Mulliken charges =  -0.00000

 Dipole moment (field-independent basis, Debye):
    X=             -6.1619    Y=              2.4606    Z=              1.3440  Tot=              6.7698
 Quadrupole moment (field-independent basis, Debye-Ang):
   XX=           -153.9847   YY=           -167.5749   ZZ=           -153.4865
   XY=             17.4701   XZ=             -2.6572   YZ=             12.2102

  Exact polarizability:     253.338      16.586     268.209      10.766      -0.979     196.307
 Approx polarizability:     294.040      11.861     339.675      16.112      -9.328     275.937

                      1                      2                      3
                      A                      A                      A
 Frequencies --     22.5856                29.4304                40.7509
 Red. masses --      5.7900                 7.0390                 5.5956
 Frc consts  --      0.0017                 0.0036                 0.0055
 IR Inten    --      0.9649                 0.7659                 0.6129

                      4                      5                      6
                      A                      A                      A
 Frequencies --     52.7096                71.6890                84.2716
 Red. masses --      6.7578                 7.2838                 3.5611
 Frc consts  --      0.0111                 0.0221                 0.0149
 IR Inten    --      4.3958                 2.0824                 0.1785

                      7                      8                      9
                      A                      A                      A
 Frequencies --     95.2487               102.0764               127.4284
 Red. masses --      5.5682                 5.9847                 7.1522
 Frc consts  --      0.0298                 0.0367                 0.0684
 IR Inten    --      0.2585                 1.0175                 1.0346

                     10                     11                     12
                      A                      A                      A
 Frequencies --    161.8755               171.6683               213.0941
 Red. masses --      5.4221                11.7514                 3.6239
 Frc consts  --      0.0837                 0.2040                 0.0970
 IR Inten    --      0.7948                 0.7695                 2.0280

                     13                     14                     15
                      A                      A                      A
 Frequencies --    240.0784               258.3760               269.5255
 Red. masses --      3.0617                 4.0834                 3.5018
 Frc consts  --      0.1040                 0.1606                 0.1499
 IR Inten    --      2.1603                 8.9170                 8.9045

                     16                     17                     18
                      A                      A                      A
 Frequencies --    273.1476               292.8019               299.7048
 Red. masses --      1.5861                 7.3406                 4.0674
 Frc consts  --      0.0697                 0.3708                 0.2153
 IR Inten    --      0.9965                 2.7148                 0.8098

                     19                     20                     21
                      A                      A                      A
 Frequencies --    304.7141               320.6642               347.6938
 Red. masses --      6.2790                 3.2590                 4.6714
 Frc consts  --      0.3435                 0.1974                 0.3327
 IR Inten    --      0.7743                 6.1206                17.0636

                     22                     23                     24
                      A                      A                      A
 Frequencies --    368.3064               396.3030               429.8555
 Red. masses --      2.4993                 5.2482                 3.6455
 Frc consts  --      0.1998                 0.4856                 0.3969
 IR Inten    --      0.9149                 1.7035                 2.5850

                     25                     26                     27
                      A                      A                      A
 Frequencies --    432.2419               457.5735               469.2865
 Red. masses --      3.2154                 5.6439                 3.5013
 Frc consts  --      0.3539                 0.6962                 0.4543
 IR Inten    --     11.6560                14.7758                16.6526

                     28                     29                     30
                      A                      A                      A
 Frequencies --    486.7956               499.2596               501.7448
 Red. masses --      2.3524                 2.0861                 2.7570
 Frc consts  --      0.3284                 0.3064                 0.4089
 IR Inten    --    109.8736                32.5415                 5.6100

                     31                     32                     33
                      A                      A                      A
 Frequencies --    509.2207               531.6717               544.9684
 Red. masses --      1.7216                 2.3999                 5.1055
 Frc consts  --      0.2630                 0.3997                 0.8934
 IR Inten    --     45.6888                15.5905                 7.9951

                     34                     35                     36
                      A                      A                      A
 Frequencies --    559.8449               597.7397               600.9437
 Red. masses --      2.8493                10.8500                 5.9971
 Frc consts  --      0.5262                 2.2840                 1.2760
 IR Inten    --     13.4116               148.4202                31.8110

                     37                     38                     39
                      A                      A                      A
 Frequencies --    603.8043               618.3812               653.5421
 Red. masses --      3.0659                 4.8487                 3.2316
 Frc consts  --      0.6586                 1.0924                 0.8132
 IR Inten    --     26.4324                 4.5002                39.5064

                     40                     41                     42
                      A                      A                      A
 Frequencies --    685.9282               701.8508               728.5518
 Red. masses --      4.5506                 6.7556                 5.3490
 Frc consts  --      1.2615                 1.9607                 1.6728
 IR Inten    --      7.4598                16.7918                13.1814

                     43                     44                     45
                      A                      A                      A
 Frequencies --    739.1680               771.3583               780.3329
 Red. masses --      3.0863                 4.4050                 1.3985
 Frc consts  --      0.9935                 1.5442                 0.5017
 IR Inten    --      6.3328                28.5957                82.4127

                     46                     47                     48
                      A                      A                      A
 Frequencies --    820.4612               837.9723               867.9758
 Red. masses --      4.1406                 4.2103                 3.6250
 Frc consts  --      1.6422                 1.7419                 1.6091
 IR Inten    --     32.5170                 8.1692                28.2314

                     49                     50                     51
                      A                      A                      A
 Frequencies --    874.4958               888.1200               892.3211
 Red. masses --      1.7027                 4.6197                 1.3733
 Frc consts  --      0.7672                 2.1469                 0.6443
 IR Inten    --     19.1775                86.1797                 1.2625

                     52                     53                     54
                      A                      A                      A
 Frequencies --    907.9359               928.1349               949.6176
 Red. masses --      2.5355                 1.4999                 1.4014
 Frc consts  --      1.2315                 0.7613                 0.7446
 IR Inten    --      1.2540                 1.1138                 6.0409

                     55                     56                     57
                      A                      A                      A
 Frequencies --    970.9452               981.0327              1006.2944
 Red. masses --      1.3529                 2.1909                 1.3502
 Frc consts  --      0.7514                 1.2423                 0.8056
 IR Inten    --      3.6050                 0.9386                 0.5200

                     58                     59                     60
                      A                      A                      A
 Frequencies --   1009.9096              1055.9857              1064.9272
 Red. masses --      1.2813                 2.0185                 6.2554
 Frc consts  --      0.7700                 1.3262                 4.1797
 IR Inten    --      0.0679                 6.9251                17.6228

                     61                     62                     63
                      A                      A                      A
 Frequencies --   1072.3632              1093.9509              1117.0008
 Red. masses --      1.2756                 1.7407                 2.0860
 Frc consts  --      0.8643                 1.2273                 1.5335
 IR Inten    --      1.0439                10.5352                 4.8513

                     64                     65                     66
                      A                      A                      A
 Frequencies --   1136.7230              1154.4440              1156.7085
 Red. masses --      2.3683                 2.2223                 1.8333
 Frc consts  --      1.8030                 1.7450                 1.4452
 IR Inten    --      5.1868                21.5803                20.7967

                     67                     68                     69
                      A                      A                      A
 Frequencies --   1163.9158              1176.2389              1181.7761
 Red. masses --      3.2975                 3.0080                 1.1598
 Frc consts  --      2.6319                 2.4520                 0.9543
 IR Inten    --    107.2617                53.7102                 0.9754

                     70                     71                     72
                      A                      A                      A
 Frequencies --   1188.8765              1199.3983              1224.2577
 Red. masses --      2.1518                 1.9522                 1.8097
 Frc consts  --      1.7919                 1.6546                 1.5981
 IR Inten    --     80.6532                15.8718                 6.9253

                     73                     74                     75
                      A                      A                      A
 Frequencies --   1257.6558              1290.8630              1308.4689
 Red. masses --      1.6950                 2.0570                 1.3902
 Frc consts  --      1.5796                 2.0195                 1.4024
 IR Inten    --     17.7706                30.0662                18.2022

                     76                     77                     78
                      A                      A                      A
 Frequencies --   1326.8543              1331.0513              1338.4400
 Red. masses --      4.8773                 1.8552                 1.6150
 Frc consts  --      5.0591                 1.9365                 1.7046
 IR Inten    --     30.9650                 3.2474                48.2381

                     79                     80                     81
                      A                      A                      A
 Frequencies --   1363.7081              1377.4010              1390.4523
 Red. masses --      2.7469                 3.0218                14.6197
 Frc consts  --      3.0097                 3.3779                16.6533
 IR Inten    --     10.8778               247.0584               237.4489

                     82                     83                     84
                      A                      A                      A
 Frequencies --   1400.3149              1436.0166              1439.0400
 Red. masses --      1.5132                 2.7597                 1.4347
 Frc consts  --      1.7483                 3.3529                 1.7505
 IR Inten    --     27.4714                 6.9104                18.6726

                     85                     86                     87
                      A                      A                      A
 Frequencies --   1441.3518              1487.6903              1500.2941
 Red. masses --      3.4549                 1.8975                 1.1501
 Frc consts  --      4.2289                 2.4743                 1.5253
 IR Inten    --      9.6846                30.9048                 2.9714

                     88                     89                     90
                      A                      A                      A
 Frequencies --   1513.1405              1517.0086              1522.4449
 Red. masses --      1.0831                 2.4391                 1.0703
 Frc consts  --      1.4611                 3.3071                 1.4616
 IR Inten    --      4.6345                12.4470                15.6019

                     91                     92                     93
                      A                      A                      A
 Frequencies --   1524.9859              1541.2298              1598.4051
 Red. masses --      2.9207                 3.1251                 1.1242
 Frc consts  --      4.0019                 4.3737                 1.6922
 IR Inten    --     21.2176                97.2367                67.0383

                     94                     95                     96
                      A                      A                      A
 Frequencies --   1644.5612              1679.5169              1680.8482
 Red. masses --      7.9626                 6.1970                 6.9701
 Frc consts  --     12.6884                10.2992                11.6023
 IR Inten    --     11.6143                73.2216                 9.2501

                     97                     98                     99
                      A                      A                      A
 Frequencies --   1693.6634              1821.1639              2993.0581
 Red. masses --      7.2794                 9.7990                 1.0834
 Frc consts  --     12.3027                19.1484                 5.7184
 IR Inten    --     42.9668               454.0561                67.1957

                    100                    101                    102
                      A                      A                      A
 Frequencies --   3064.2385              3077.7848              3148.1868
 Red. masses --      1.0691                 1.0359                 1.0962
 Frc consts  --      5.9143                 5.7817                 6.4010
 IR Inten    --     11.2017                11.8604                12.4375

                    103                    104                    105
                      A                      A                      A
 Frequencies --   3152.5715              3160.7137              3218.8417
 Red. masses --      1.1021                 1.1030                 1.0880
 Frc consts  --      6.4534                 6.4924                 6.6418
 IR Inten    --      9.0399                23.9424                 3.9266

                    106                    107                    108
                      A                      A                      A
 Frequencies --   3223.3258              3234.1651              3240.4581
 Red. masses --      1.0898                 1.0935                 1.0895
 Frc consts  --      6.6712                 6.7390                 6.7405
 IR Inten    --      4.6215                 4.8171                 0.1283

                    109                    110                    111
                      A                      A                      A
 Frequencies --   3247.7711              3253.0963              3292.7509
 Red. masses --      1.0967                 1.0957                 1.0892
 Frc consts  --      6.8157                 6.8318                 6.9576
 IR Inten    --      9.3716                 0.4066                11.6341

                    112                    113                    114
                      A                      A                      A
 Frequencies --   3502.7563              3542.9321              3676.8640
 Red. masses --      1.0760                 1.0475                 1.1015
 Frc consts  --      7.7780                 7.7471                 8.7739
 IR Inten    --     21.6321                84.1495                50.8930

 - Thermochemistry -
 -------------------
 Temperature   298.150 Kelvin.  Pressure   1.00000 Atm.
 Atom     1 has atomic number  6 and mass  12.00000

 Molecular mass:   365.06009 amu.
 Principal axes and moments of inertia in atomic units:
                           1         2         3
     Eigenvalues --  6290.009979662.86374**********
           X            0.99954   0.02889  -0.00895
           Y           -0.02865   0.99927   0.02545
           Z            0.00968  -0.02518   0.99964
 This molecule is an asymmetric top.
 Rotational symmetry number  1.
 Warning -- assumption of classical behavior for rotation
           may cause significant error
 Rotational temperatures (Kelvin)      0.01377     0.00896     0.00667
 Rotational constants (GHZ):           0.28692     0.18677     0.13897
 Zero-point vibrational energy     812420.4 (Joules/Mol)
                                  194.17313 (Kcal/Mol)
 Warning -- explicit consideration of  38 degrees of freedom as
           vibrations may cause significant error
 Vibrational temperatures:     32.50    42.34    58.63    75.84   103.14
          (Kelvin)            121.25   137.04   146.87   183.34   232.90
                              246.99   306.59   345.42   371.75   387.79
                              393.00   421.28   431.21   438.42   461.36
                              500.25   529.91   570.19   618.47   621.90
                              658.35   675.20   700.39   718.32   721.90
                              732.65   764.96   784.09   805.49   860.01
                              864.62   868.74   889.71   940.30   986.90
                             1009.81  1048.22  1063.50  1109.81  1122.72
                             1180.46  1205.66  1248.82  1258.20  1277.81
                             1283.85  1306.32  1335.38  1366.29  1396.97
                             1411.49  1447.83  1453.03  1519.33  1532.19
                             1542.89  1573.95  1607.11  1635.49  1660.99
                             1664.25  1674.62  1692.35  1700.31  1710.53
                             1725.67  1761.43  1809.49  1857.26  1882.59
                             1909.05  1915.09  1925.72  1962.07  1981.77
                             2000.55  2014.74  2066.11  2070.46  2073.78
                             2140.45  2158.59  2177.07  2182.64  2190.46
                             2194.11  2217.49  2299.75  2366.16  2416.45
                             2418.37  2436.80  2620.25  4306.34  4408.76
                             4428.25  4529.54  4535.85  4547.56  4631.20
                             4637.65  4653.24  4662.30  4672.82  4680.48
                             4737.53  5039.69  5097.49  5290.19

 Zero-point correction=                           0.309435 (Hartree/Particle)
 Thermal correction to Energy=                    0.330815
 Thermal correction to Enthalpy=                  0.331759
 Thermal correction to Gibbs Free Energy=         0.258008
 Sum of electronic and zero-point Energies=          -1866.817908
 Sum of electronic and thermal Energies=             -1866.796528
 Sum of electronic and thermal Enthalpies=           -1866.795584
 Sum of electronic and thermal Free Energies=        -1866.869334

                     E (Thermal)             CV                S
                      KCal/Mol        Cal/Mol-Kelvin    Cal/Mol-Kelvin
 Total                  207.589             83.049            155.221
 Electronic               0.000              0.000              0.000
 Translational            0.889              2.981             43.578
 Rotational               0.889              2.981             35.022
 Vibrational            205.812             77.087             76.621
 Vibration     1          0.593              1.985              6.393
 Vibration     2          0.593              1.984              5.867
 Vibration     3          0.594              1.981              5.222
 Vibration     4          0.596              1.977              4.713
 Vibration     5          0.598              1.968              4.106
 Vibration     6          0.601              1.960              3.789
 Vibration     7          0.603              1.953              3.549
 Vibration     8          0.604              1.948              3.414
 Vibration     9          0.611              1.926              2.984
 Vibration    10          0.622              1.889              2.528
 Vibration    11          0.626              1.877              2.417
 Vibration    12          0.644              1.821              2.017
 Vibration    13          0.657              1.779              1.802
 Vibration    14          0.667              1.749              1.673
 Vibration    15          0.674              1.729              1.599
 Vibration    16          0.676              1.723              1.576
 Vibration    17          0.688              1.687              1.458
 Vibration    18          0.692              1.674              1.419
 Vibration    19          0.696              1.665              1.391
 Vibration    20          0.706              1.634              1.307
 Vibration    21          0.725              1.580              1.177
 Vibration    22          0.741              1.537              1.087
 Vibration    23          0.763              1.478              0.976
 Vibration    24          0.791              1.405              0.859
 Vibration    25          0.793              1.400              0.851
 Vibration    26          0.816              1.344              0.773
 Vibration    27          0.826              1.318              0.740
 Vibration    28          0.843              1.279              0.692
 Vibration    29          0.855              1.252              0.660
 Vibration    30          0.857              1.246              0.654
 Vibration    31          0.864              1.230              0.635
 Vibration    32          0.887              1.180              0.583
 Vibration    33          0.900              1.151              0.555
 Vibration    34          0.915              1.118              0.524
 Vibration    35          0.956              1.037              0.454
 Vibration    36          0.959              1.030              0.448
 Vibration    37          0.962              1.024              0.443
 Vibration    38          0.978              0.993              0.419

 Optimization completed.
    -- Stationary point found.
 Normal termination of Gaussian 16 at Sat Jul  2 18:08:38 2022.
