 Gaussian 16, Revision C.01,
 Gaussian 16:  ES64L-G16RevC.01  3-Jul-2019

 --------------------------------------------------
 #M062X/gen 6D INT(grid=ultrafine) OPT Freq=noraman
 --------------------------------------------------

 ------------
 HA.3.a3.freq
 ------------
 Symbolic Z-matrix:
 Charge =  0 Multiplicity = 1

 SCF Done:  E(RM062X) =  -2214.65049686     A.U. after   16 cycles
 SCF Done:  E(RM062X) =  -2214.65156136     A.U. after   14 cycles
 SCF Done:  E(RM062X) =  -2214.65044120     A.U. after   15 cycles
 SCF Done:  E(RM062X) =  -2214.65168274     A.U. after   14 cycles
 SCF Done:  E(RM062X) =  -2214.65182489     A.U. after   14 cycles
 SCF Done:  E(RM062X) =  -2214.65184641     A.U. after   12 cycles
 SCF Done:  E(RM062X) =  -2214.65185277     A.U. after   11 cycles
 SCF Done:  E(RM062X) =  -2214.65185703     A.U. after   12 cycles
 SCF Done:  E(RM062X) =  -2214.65185996     A.U. after   12 cycles
 SCF Done:  E(RM062X) =  -2214.65186018     A.U. after   10 cycles
 SCF Done:  E(RM062X) =  -2214.65186029     A.U. after   10 cycles
 Optimization completed.
    -- Stationary point found.
 Normal termination of Gaussian 16 at Fri May 20 15:16:03 2022.

 ------------------------------------------------------------------
 #N Geom=AllCheck Guess=TCheck SCRF=Check GenChk RM062X/ChkBas Freq
 ------------------------------------------------------------------

 Structure from the checkpoint file:  "/jobfs/40738507.gadi-pbs/Gau-2434650.chk"
 ------------
 HA.3.a3.freq
 ------------
 Charge =  0 Multiplicity = 1

                         Standard orientation:
 ---------------------------------------------------------------------
 Center     Atomic      Atomic             Coordinates (Angstroms)
 Number     Number       Type             X           Y           Z
 ---------------------------------------------------------------------
      1          6           0       -0.367567    0.076101   -0.028692
      2          6           0        0.428114    1.235549   -0.012348
      3         17           0       -0.196601    2.851355   -0.030307
      4          6           0        1.821372    1.152130    0.011840
      5          1           0        2.410532    2.061838    0.021869
      6          6           0        2.436460   -0.088511    0.017258
      7         17           0        4.165693   -0.186675    0.046766
      8          6           0        1.687362   -1.257435   -0.002407
      9          1           0        2.167321   -2.229170   -0.001128
     10          6           0        0.302701   -1.161295   -0.030117
     11         17           0       -0.544984   -2.683413   -0.052351
     12         16           0       -2.189279    0.094915   -0.105226
     13          8           0       -2.641291    1.458092    0.048385
     14          8           0       -2.547675   -0.717695   -1.245941
     15          7           0       -2.723138   -0.691905    1.245953
     16          1           0       -2.557246   -0.175529    2.105058
     17          1           0       -2.478958   -1.676407    1.293555
 ---------------------------------------------------------------------

 SCF Done:  E(RM062X) =  -2214.65186029     A.U. after    1 cycles

 The electronic state is 1-A.
 Alpha  occ. eigenvalues -- -102.71135-102.70522-102.69536 -90.18942 -19.65911
 Alpha  occ. eigenvalues --  -19.65847 -14.81616 -10.67420 -10.67180 -10.66428
 Alpha  occ. eigenvalues --  -10.63810 -10.61200 -10.60940  -9.85789  -9.85190
 Alpha  occ. eigenvalues --   -9.84171  -8.49757  -7.58204  -7.57605  -7.57530
 Alpha  occ. eigenvalues --   -7.57483  -7.56923  -7.56899  -7.56606  -7.55903
 Alpha  occ. eigenvalues --   -7.55840  -6.41972  -6.41920  -6.41880  -1.26694
 Alpha  occ. eigenvalues --   -1.15163  -1.06328  -1.04280  -1.01422  -1.00881
 Alpha  occ. eigenvalues --   -0.94180  -0.88760  -0.86897  -0.77240  -0.73153
 Alpha  occ. eigenvalues --   -0.71688  -0.66033  -0.63943  -0.61473  -0.60137
 Alpha  occ. eigenvalues --   -0.58300  -0.56235  -0.54454  -0.53791  -0.53178
 Alpha  occ. eigenvalues --   -0.50060  -0.48342  -0.47028  -0.46216  -0.44138
 Alpha  occ. eigenvalues --   -0.43173  -0.42191  -0.41325  -0.40942  -0.40140
 Alpha  occ. eigenvalues --   -0.39674  -0.38622  -0.37571  -0.33955  -0.33455
 Alpha virt. eigenvalues --   -0.04501  -0.03407  -0.00782  -0.00134   0.01307
 Alpha virt. eigenvalues --    0.01949   0.02757   0.03628   0.04223   0.04576
 Alpha virt. eigenvalues --    0.05939   0.06440   0.06908   0.07826   0.07882

 Mulliken charges:
               1
     1  C   -2.641084
     2  C    0.476792
     3  Cl   0.301073
     4  C   -0.166671
     5  H    0.259058
     6  C   -0.015073
     7  Cl   0.267335
     8  C   -0.122584
     9  H    0.262157
    10  C    0.942514
    11  Cl   0.239535
    12  S    1.222851
    13  O   -0.528916
    14  O   -0.442178
    15  N   -0.944613
    16  H    0.448626
    17  H    0.441177
 Sum of Mulliken charges =   0.00000

 Dipole moment (field-independent basis, Debye):
    X=              3.5519    Y=             -1.7263    Z=              3.3134  Tot=              5.1551
 Quadrupole moment (field-independent basis, Debye-Ang):
   XX=           -112.5572   YY=           -100.3263   ZZ=           -101.1835
   XY=              4.4119   XZ=             -8.6522   YZ=             -3.0184

  Exact polarizability:     174.914       0.560     153.654      -1.595       0.363      83.787
 Approx polarizability:     199.942      -0.655     203.516       0.341       3.658     113.143

                      1                      2                      3
                      A                      A                      A
 Frequencies --     35.3497                66.7944               143.7412
 Red. masses --     17.0595                 7.7809                12.8220
 Frc consts  --      0.0126                 0.0205                 0.1561
 IR Inten    --      1.8284                 3.6524                 1.0053

                      4                      5                      6
                      A                      A                      A
 Frequencies --    174.7944               194.1301               206.5870
 Red. masses --     15.6210                 4.7430                 8.2363
 Frc consts  --      0.2812                 0.1053                 0.2071
 IR Inten    --      1.8964                 0.0735                 5.1933

                      7                      8                      9
                      A                      A                      A
 Frequencies --    213.0805               219.3098               247.5404
 Red. masses --      9.5396                10.4146                18.7759
 Frc consts  --      0.2552                 0.2951                 0.6779
 IR Inten    --      3.8470                 1.4964                 0.2034

                     10                     11                     12
                      A                      A                      A
 Frequencies --    265.1518               320.3709               382.8198
 Red. masses --      5.6261                 1.7779                11.3208
 Frc consts  --      0.2330                 0.1075                 0.9775
 IR Inten    --      6.4164                 8.2901                 3.5264

                     13                     14                     15
                      A                      A                      A
 Frequencies --    385.7396               449.6294               465.5417
 Red. masses --     10.2064                 8.2746                 2.3824
 Frc consts  --      0.8948                 0.9856                 0.3042
 IR Inten    --      3.7941                 6.0773                12.1116

                     16                     17                     18
                      A                      A                      A
 Frequencies --    493.9596               498.1115               543.7755
 Red. masses --     10.7102                 7.3575                 5.2322
 Frc consts  --      1.5397                 1.0756                 0.9115
 IR Inten    --     32.7301                16.7898                 5.6052

                     19                     20                     21
                      A                      A                      A
 Frequencies --    550.8582               577.1876               584.1777
 Red. masses --      6.9253                 2.1111                 3.9366
 Frc consts  --      1.2381                 0.4144                 0.7915
 IR Inten    --      0.9757               121.0993                11.0300

                     22                     23                     24
                      A                      A                      A
 Frequencies --    654.2387               720.6276               819.2984
 Red. masses --      4.0565                 5.5161                11.5753
 Frc consts  --      1.0230                 1.6877                 4.5779
 IR Inten    --    397.5141                 0.8499                54.2883

                     25                     26                     27
                      A                      A                      A
 Frequencies --    855.7239               877.5574               890.0788
 Red. masses --      7.9569                 5.2777                 1.4391
 Frc consts  --      3.4329                 2.3947                 0.6717
 IR Inten    --     73.9087               105.7904                29.9389

                     28                     29                     30
                      A                      A                      A
 Frequencies --    907.2301              1060.8660              1105.0258
 Red. masses --      1.3577                 7.2598                 1.2508
 Frc consts  --      0.6584                 4.8139                 0.8999
 IR Inten    --      0.3196                13.4683                 3.2700

                     31                     32                     33
                      A                      A                      A
 Frequencies --   1165.4833              1180.0135              1199.0752
 Red. masses --      1.6417                11.5766                 7.7239
 Frc consts  --      1.3139                 9.4974                 6.5430
 IR Inten    --     21.4342               105.6848                93.2611

                     34                     35                     36
                      A                      A                      A
 Frequencies --   1230.2200              1293.5916              1405.8727
 Red. masses --      1.5421                10.7462                 5.1793
 Frc consts  --      1.3750                10.5949                 6.0313
 IR Inten    --     25.9171                 2.3737                49.3348

                     37                     38                     39
                      A                      A                      A
 Frequencies --   1430.7419              1459.2516              1613.0863
 Red. masses --      5.1948                 3.3958                 1.1338
 Frc consts  --      6.2653                 4.2604                 1.7382
 IR Inten    --    236.6669                15.2495                69.5221

                     40                     41                     42
                      A                      A                      A
 Frequencies --   1623.4702              1647.9770              3264.0911
 Red. masses --      8.2684                 6.9308                 1.0934
 Frc consts  --     12.8398                11.0902                 6.8639
 IR Inten    --     97.9283               156.3091                 3.2840

                     43                     44                     45
                      A                      A                      A
 Frequencies --   3264.8265              3557.7334              3680.2355
 Red. masses --      1.0937                 1.0460                 1.1011
 Frc consts  --      6.8685                 7.8005                 8.7866
 IR Inten    --      3.4941                42.4840                61.9724

 - Thermochemistry -
 -------------------
 Temperature   298.150 Kelvin.  Pressure   1.00000 Atm.
 Atom     1 has atomic number  6 and mass  12.00000

 Molecular mass:   258.90283 amu.
 Principal axes and moments of inertia in atomic units:
                           1         2         3
     Eigenvalues --  2576.420174705.981156902.25035
           X            0.99994   0.00764  -0.00721
           Y           -0.00767   0.99996  -0.00417
           Z            0.00718   0.00423   0.99997
 This molecule is an asymmetric top.
 Rotational symmetry number  1.
 Warning -- assumption of classical behavior for rotation
           may cause significant error
 Rotational temperatures (Kelvin)      0.03362     0.01841     0.01255
 Rotational constants (GHZ):           0.70048     0.38350     0.26147
 Zero-point vibrational energy     262729.6 (Joules/Mol)
                                   62.79389 (Kcal/Mol)
 Warning -- explicit consideration of  21 degrees of freedom as
           vibrations may cause significant error
 Vibrational temperatures:     50.86    96.10   206.81   251.49   279.31
          (Kelvin)            297.23   306.58   315.54   356.16   381.49
                              460.94   550.79   554.99   646.92   669.81
                              710.70   716.67   782.37   792.56   830.44
                              840.50   941.30  1036.82  1178.79  1231.20
                             1262.61  1280.62  1305.30  1526.35  1589.89
                             1676.87  1697.78  1725.20  1770.01  1861.19
                             2022.74  2058.52  2099.54  2320.87  2335.81
                             2371.07  4696.30  4697.36  5118.78  5295.04

 Zero-point correction=                           0.100068 (Hartree/Particle)
 Thermal correction to Energy=                    0.112413
 Thermal correction to Enthalpy=                  0.113357
 Thermal correction to Gibbs Free Energy=         0.060144
 Sum of electronic and zero-point Energies=          -2214.551792
 Sum of electronic and thermal Energies=             -2214.539447
 Sum of electronic and thermal Enthalpies=           -2214.538503
 Sum of electronic and thermal Free Energies=        -2214.591716

                     E (Thermal)             CV                S
                      KCal/Mol        Cal/Mol-Kelvin    Cal/Mol-Kelvin
 Total                   70.540             45.233            111.996
 Electronic               0.000              0.000              0.000
 Translational            0.889              2.981             42.554
 Rotational               0.889              2.981             32.792
 Vibrational             68.763             39.272             36.650
 Vibration     1          0.594              1.982              5.504
 Vibration     2          0.598              1.970              4.246
 Vibration     3          0.616              1.909              2.753
 Vibration     4          0.627              1.873              2.383
 Vibration     5          0.635              1.848              2.188
 Vibration     6          0.641              1.830              2.074
 Vibration     7          0.644              1.821              2.017
 Vibration     8          0.647              1.812              1.965
 Vibration     9          0.661              1.767              1.748
 Vibration    10          0.671              1.737              1.628
 Vibration    11          0.706              1.635              1.308
 Vibration    12          0.752              1.507              1.028
 Vibration    13          0.754              1.501              1.017
 Vibration    14          0.809              1.362              0.797
 Vibration    15          0.823              1.326              0.750
 Vibration    16          0.850              1.263              0.673
 Vibration    17          0.854              1.254              0.663
 Vibration    18          0.899              1.153              0.557
 Vibration    19          0.906              1.138              0.542
 Vibration    20          0.934              1.081              0.491
 Vibration    21          0.941              1.066              0.478

 Optimization completed.
    -- Stationary point found.
 Normal termination of Gaussian 16 at Fri May 20 15:21:37 2022.
