 Gaussian 16, Revision C.01,
 Gaussian 16:  ES64L-G16RevC.01  3-Jul-2019

 --------------------------------------------------
 #M062X/gen 6D INT(grid=ultrafine) OPT Freq=noraman
 --------------------------------------------------

 ----------
 HA.31.freq
 ----------
 Symbolic Z-matrix:
 Charge =  0 Multiplicity = 1

 SCF Done:  E(RM062X) =  -1991.56850386     A.U. after   17 cycles
 SCF Done:  E(RM062X) =  -1991.57058996     A.U. after   14 cycles
 SCF Done:  E(RM062X) =  -1991.57077558     A.U. after   15 cycles
 SCF Done:  E(RM062X) =  -1991.57088523     A.U. after   14 cycles
 SCF Done:  E(RM062X) =  -1991.57095165     A.U. after   13 cycles
 SCF Done:  E(RM062X) =  -1991.57097839     A.U. after   13 cycles
 SCF Done:  E(RM062X) =  -1991.57098503     A.U. after   13 cycles
 SCF Done:  E(RM062X) =  -1991.57098656     A.U. after   11 cycles
 SCF Done:  E(RM062X) =  -1991.57098701     A.U. after   11 cycles
 Optimization completed.
    -- Stationary point found.
 Normal termination of Gaussian 16 at Fri Jul  1 09:04:25 2022.

 ------------------------------------------------------------------
 #N Geom=AllCheck Guess=TCheck SCRF=Check GenChk RM062X/ChkBas Freq
 ------------------------------------------------------------------

 Structure from the checkpoint file:  "/jobfs/49768860.gadi-pbs/Gau-3632727.chk"
 ----------
 HA.31.freq
 ----------
 Charge =  0 Multiplicity = 1

                         Standard orientation:
 ---------------------------------------------------------------------
 Center     Atomic      Atomic             Coordinates (Angstroms)
 Number     Number       Type             X           Y           Z
 ---------------------------------------------------------------------
      1          6           0        1.172011   -0.099682   -0.059083
      2          6           0        1.164575    1.302014    0.024807
      3         17           0        2.642248    2.211302    0.091101
      4          6           0       -0.027393    2.005216    0.067688
      5          1           0       -0.031999    3.088593    0.118222
      6          6           0       -1.256573    1.331148    0.029076
      7          6           0       -1.223515   -0.073161   -0.026644
      8         16           0       -2.738807   -0.949078    0.134586
      9          6           0       -0.032724   -0.788767   -0.079553
     10          1           0       -0.030516   -1.874152   -0.143274
     11         16           0        2.677753   -1.079161   -0.183886
     12          8           0        2.240658   -2.461209   -0.141588
     13          8           0        3.464984   -0.537310   -1.270069
     14          7           0        3.544345   -0.832642    1.201828
     15          1           0        3.083045   -1.184795    2.036273
     16          1           0        3.907029    0.112161    1.297265
     17          7           0       -2.410980    2.109632   -0.005352
     18          6           0       -3.521719    1.559135   -0.334185
     19          7           0       -3.713137    0.223287   -0.609496
     20          8           0       -2.784711   -2.133913   -0.695700
     21          8           0       -3.098409   -1.027634    1.536419
     22          1           0       -4.402180    2.185851   -0.461518
     23          1           0       -4.636478   -0.104825   -0.880881
 ---------------------------------------------------------------------

 SCF Done:  E(RM062X) =  -1991.57098701     A.U. after    1 cycles

 The electronic state is 1-A.
 Alpha  occ. eigenvalues -- -102.71229 -90.20591 -90.18852 -19.68090 -19.67830
 Alpha  occ. eigenvalues --  -19.66150 -19.65973 -14.86037 -14.81833 -14.80464
 Alpha  occ. eigenvalues --  -10.68854 -10.67393 -10.65557 -10.63369 -10.63231
 Alpha  occ. eigenvalues --  -10.62415 -10.60983  -9.85871  -8.51579  -8.49720
 Alpha  occ. eigenvalues --   -7.58284  -7.57612  -7.57570  -6.43851  -6.43698
 Alpha  occ. eigenvalues --   -6.43628  -6.41937  -6.41886  -6.41832  -1.28556
 Alpha  occ. eigenvalues --   -1.26685  -1.16652  -1.15198  -1.14213  -1.06429
 Alpha  occ. eigenvalues --   -1.04630  -1.03621  -0.99007  -0.91849  -0.90397
 Alpha  occ. eigenvalues --   -0.82419  -0.79899  -0.76445  -0.74048  -0.69784
 Alpha  occ. eigenvalues --   -0.67933  -0.67003  -0.64411  -0.63813  -0.60540
 Alpha  occ. eigenvalues --   -0.59691  -0.59124  -0.58445  -0.57491  -0.55608
 Alpha  occ. eigenvalues --   -0.54269  -0.53640  -0.52577  -0.50841  -0.49701
 Alpha  occ. eigenvalues --   -0.46298  -0.45702  -0.44063  -0.43251  -0.42604
 Alpha  occ. eigenvalues --   -0.42160  -0.41927  -0.41783  -0.41274  -0.39938
 Alpha  occ. eigenvalues --   -0.39548  -0.38696  -0.38159  -0.34882  -0.33005
 Alpha virt. eigenvalues --   -0.06736  -0.04180  -0.01160  -0.00407   0.01180
 Alpha virt. eigenvalues --    0.01692   0.01915   0.02440   0.03014   0.03089
 Alpha virt. eigenvalues --    0.04422   0.05084   0.05528   0.05967   0.06102

 Mulliken charges:
               1
     1  C   -1.933186
     2  C    1.184688
     3  Cl   0.268302
     4  C   -1.201866
     5  H    0.265093
     6  C    0.265050
     7  C   -0.095662
     8  S    1.686884
     9  C   -0.272624
    10  H    0.312982
    11  S    1.423161
    12  O   -0.561931
    13  O   -0.399236
    14  N   -0.917744
    15  H    0.449527
    16  H    0.446463
    17  N   -0.179294
    18  C    0.175372
    19  N   -0.736020
    20  O   -0.504460
    21  O   -0.398798
    22  H    0.232110
    23  H    0.491187
 Sum of Mulliken charges =  -0.00000

 Dipole moment (field-independent basis, Debye):
    X=             -3.4930    Y=              4.8554    Z=              1.6073  Tot=              6.1935
 Quadrupole moment (field-independent basis, Debye-Ang):
   XX=           -107.3112   YY=           -130.1794   ZZ=           -121.6091
   XY=             -1.3339   XZ=             21.5243   YZ=             -3.1453

  Exact polarizability:     227.726       3.413     162.864       6.205       0.741     104.022
 Approx polarizability:     258.367      11.581     221.687       4.243       3.871     147.282

                      1                      2                      3
                      A                      A                      A
 Frequencies --     47.7080                55.5088                86.1687
 Red. masses --     11.0798                 7.0581                10.7567
 Frc consts  --      0.0149                 0.0128                 0.0471
 IR Inten    --      2.8572                 5.1422                 1.0103

                      4                      5                      6
                      A                      A                      A
 Frequencies --    112.6852               130.1950               181.0318
 Red. masses --      8.2886                11.1603                 9.4121
 Frc consts  --      0.0620                 0.1115                 0.1817
 IR Inten    --      3.4197                 1.3956                 4.7208

                      7                      8                      9
                      A                      A                      A
 Frequencies --    192.8018               195.2361               244.5071
 Red. masses --     13.5140                 4.6724                10.0649
 Frc consts  --      0.2960                 0.1049                 0.3545
 IR Inten    --      1.6032                 9.0979                 6.5924

                     10                     11                     12
                      A                      A                      A
 Frequencies --    250.5036               288.1816               300.2629
 Red. masses --      7.3069                 4.1608                 2.0139
 Frc consts  --      0.2702                 0.2036                 0.1070
 IR Inten    --      0.3544                 9.4207                 9.1910

                     13                     14                     15
                      A                      A                      A
 Frequencies --    314.7190               353.6128               374.1496
 Red. masses --      5.6479                 3.4686                 9.0101
 Frc consts  --      0.3296                 0.2555                 0.7431
 IR Inten    --      9.7180                10.7488                11.6542

                     16                     17                     18
                      A                      A                      A
 Frequencies --    427.5027               446.2686               454.5612
 Red. masses --      5.1524                 4.3281                 2.7076
 Frc consts  --      0.5548                 0.5079                 0.3296
 IR Inten    --      4.0500                45.3832                18.5789

                     19                     20                     21
                      A                      A                      A
 Frequencies --    474.4403               489.0207               502.1022
 Red. masses --      6.6535                 1.9770                 5.7501
 Frc consts  --      0.8824                 0.2786                 0.8541
 IR Inten    --     16.2039                24.6629                70.7385

                     22                     23                     24
                      A                      A                      A
 Frequencies --    529.9799               538.8094               548.8180
 Red. masses --      6.8107                 6.1033                 5.8852
 Frc consts  --      1.1271                 1.0440                 1.0444
 IR Inten    --     39.0108                 6.2552                25.5048

                     25                     26                     27
                      A                      A                      A
 Frequencies --    570.6801               576.9976               628.7148
 Red. masses --      4.5784                 3.3044                 2.9905
 Frc consts  --      0.8785                 0.6482                 0.6965
 IR Inten    --     11.6837                74.0403               294.3450

                     28                     29                     30
                      A                      A                      A
 Frequencies --    682.1977               691.0565               716.0387
 Red. masses --      8.0110                 5.1839                 7.0441
 Frc consts  --      2.1966                 1.4586                 2.1279
 IR Inten    --      6.4862               209.0023                19.2485

                     31                     32                     33
                      A                      A                      A
 Frequencies --    759.4238               794.5474               872.5421
 Red. masses --      4.4798                 6.4434                 4.3900
 Frc consts  --      1.5222                 2.3967                 1.9692
 IR Inten    --      3.3257                49.1025                38.1577

                     34                     35                     36
                      A                      A                      A
 Frequencies --    906.6199               920.2851               958.1778
 Red. masses --      5.1874                 1.5336                 1.5385
 Frc consts  --      2.5122                 0.7653                 0.8322
 IR Inten    --     12.9411                18.5334                36.9836

                     37                     38                     39
                      A                      A                      A
 Frequencies --    962.5268               972.4777              1105.5328
 Red. masses --      4.6478                 1.5170                 3.6065
 Frc consts  --      2.5370                 0.8453                 2.5971
 IR Inten    --    154.2219                 8.0659                54.8320

                     40                     41                     42
                      A                      A                      A
 Frequencies --   1108.7864              1118.5880              1150.1028
 Red. masses --      1.3594                 2.4506                 2.4674
 Frc consts  --      0.9847                 1.8066                 1.9229
 IR Inten    --      2.1912                53.8679                16.7088

                     43                     44                     45
                      A                      A                      A
 Frequencies --   1185.8317              1207.6300              1253.6752
 Red. masses --      7.2728                12.4813                 2.0207
 Frc consts  --      6.0256                10.7245                 1.8712
 IR Inten    --    199.0201               157.4293                44.3539

                     46                     47                     48
                      A                      A                      A
 Frequencies --   1274.2395              1330.2568              1382.3102
 Red. masses --      1.5485                 9.7084                15.2619
 Frc consts  --      1.4814                10.1221                17.1818
 IR Inten    --     14.6798                33.7367               173.0428

                     49                     50                     51
                      A                      A                      A
 Frequencies --   1398.1804              1413.9273              1430.8826
 Red. masses --      5.6377                 3.7521                 1.7713
 Frc consts  --      6.4935                 4.4196                 2.1368
 IR Inten    --     87.6769               154.9863               197.1713

                     52                     53                     54
                      A                      A                      A
 Frequencies --   1445.8765              1506.9502              1613.0572
 Red. masses --      2.2351                 3.2904                 8.1327
 Frc consts  --      2.7530                 4.4024                12.4677
 IR Inten    --     71.8846                64.2678                65.5368

                     55                     56                     57
                      A                      A                      A
 Frequencies --   1617.0697              1665.1390              1714.5138
 Red. masses --      1.1433                 7.5041                 8.0406
 Frc consts  --      1.7614                12.2588                13.9258
 IR Inten    --     54.6409               257.4971               224.4484

                     58                     59                     60
                      A                      A                      A
 Frequencies --   3218.2498              3236.6148              3258.9994
 Red. masses --      1.0933                 1.0920                 1.0930
 Frc consts  --      6.6719                 6.7400                 6.8395
 IR Inten    --      5.3074                18.0785                 1.8704

                     61                     62                     63
                      A                      A                      A
 Frequencies --   3549.1471              3601.6949              3670.4087
 Red. masses --      1.0462                 1.0784                 1.1011
 Frc consts  --      7.7643                 8.2426                 8.7395
 IR Inten    --     46.7467               156.6420                56.1434

 - Thermochemistry -
 -------------------
 Temperature   298.150 Kelvin.  Pressure   1.00000 Atm.
 Atom     1 has atomic number  6 and mass  12.00000

 Molecular mass:   294.94883 amu.
 Principal axes and moments of inertia in atomic units:
                           1         2         3
     Eigenvalues --  2692.992747519.868569446.76029
           X            0.99987  -0.01320   0.00903
           Y            0.01325   0.99990  -0.00533
           Z           -0.00896   0.00545   0.99995
 This molecule is an asymmetric top.
 Rotational symmetry number  1.
 Warning -- assumption of classical behavior for rotation
           may cause significant error
 Rotational temperatures (Kelvin)      0.03216     0.01152     0.00917
 Rotational constants (GHZ):           0.67016     0.24000     0.19104
 Zero-point vibrational energy     388838.5 (Joules/Mol)
                                   92.93464 (Kcal/Mol)
 Warning -- explicit consideration of  26 degrees of freedom as
           vibrations may cause significant error
 Vibrational temperatures:     68.64    79.86   123.98   162.13   187.32
          (Kelvin)            260.46   277.40   280.90   351.79   360.42
                              414.63   432.01   452.81   508.77   538.32
                              615.08   642.08   654.01   682.61   703.59
                              722.41   762.52   775.23   789.63   821.08
                              830.17   904.58   981.53   994.28  1030.22
                             1092.64  1143.18  1255.39  1304.42  1324.08
                             1378.60  1384.86  1399.18  1590.62  1595.30
                             1609.40  1654.74  1706.15  1737.51  1803.76
                             1833.35  1913.94  1988.84  2011.67  2034.33
                             2058.72  2080.29  2168.17  2320.83  2326.60
                             2395.76  2466.80  4630.34  4656.77  4688.97
                             5106.43  5182.04  5280.90

 Zero-point correction=                           0.148101 (Hartree/Particle)
 Thermal correction to Energy=                    0.163017
 Thermal correction to Enthalpy=                  0.163962
 Thermal correction to Gibbs Free Energy=         0.105566
 Sum of electronic and zero-point Energies=          -1991.422886
 Sum of electronic and thermal Energies=             -1991.407970
 Sum of electronic and thermal Enthalpies=           -1991.407025
 Sum of electronic and thermal Free Energies=        -1991.465421

                     E (Thermal)             CV                S
                      KCal/Mol        Cal/Mol-Kelvin    Cal/Mol-Kelvin
 Total                  102.295             56.867            122.903
 Electronic               0.000              0.000              0.000
 Translational            0.889              2.981             42.942
 Rotational               0.889              2.981             33.614
 Vibrational            100.518             50.905             46.347
 Vibration     1          0.595              1.978              4.910
 Vibration     2          0.596              1.975              4.611
 Vibration     3          0.601              1.959              3.745
 Vibration     4          0.607              1.939              3.222
 Vibration     5          0.612              1.923              2.943
 Vibration     6          0.630              1.866              2.318
 Vibration     7          0.635              1.850              2.201
 Vibration     8          0.636              1.847              2.178
 Vibration     9          0.660              1.772              1.770
 Vibration    10          0.663              1.762              1.727
 Vibration    11          0.685              1.696              1.485
 Vibration    12          0.693              1.673              1.415
 Vibration    13          0.702              1.646              1.337
 Vibration    14          0.730              1.568              1.150
 Vibration    15          0.745              1.525              1.063
 Vibration    16          0.789              1.410              0.867
 Vibration    17          0.806              1.369              0.807
 Vibration    18          0.813              1.351              0.782
 Vibration    19          0.831              1.307              0.725
 Vibration    20          0.845              1.274              0.686
 Vibration    21          0.857              1.245              0.653
 Vibration    22          0.885              1.184              0.587
 Vibration    23          0.894              1.164              0.568
 Vibration    24          0.904              1.142              0.547
 Vibration    25          0.927              1.095              0.503
 Vibration    26          0.933              1.081              0.491

                           ! Non-Optimized Parameters !
 Normal termination of Gaussian 16 at Fri Jul  1 09:12:07 2022.
