 Gaussian 16, Revision C.01,
 Gaussian 16:  ES64L-G16RevC.01  3-Jul-2019

 --------------------------------------------------
 #M062X/gen 6D INT(grid=ultrafine) OPT Freq=noraman
 --------------------------------------------------

 ----------
 HA.39.freq
 ----------
 Symbolic Z-matrix:
 Charge =  0 Multiplicity = 1

 SCF Done:  E(RM062X) =  -1043.82086633     A.U. after   15 cycles
 SCF Done:  E(RM062X) =  -1043.82279667     A.U. after   13 cycles
 SCF Done:  E(RM062X) =  -1043.82341771     A.U. after   14 cycles
 SCF Done:  E(RM062X) =  -1043.82367280     A.U. after   14 cycles
 SCF Done:  E(RM062X) =  -1043.82380995     A.U. after   13 cycles
 SCF Done:  E(RM062X) =  -1043.82376727     A.U. after   13 cycles
 SCF Done:  E(RM062X) =  -1043.82384390     A.U. after   13 cycles
 SCF Done:  E(RM062X) =  -1043.82384564     A.U. after   10 cycles
 SCF Done:  E(RM062X) =  -1043.82384653     A.U. after   10 cycles
 SCF Done:  E(RM062X) =  -1043.82384684     A.U. after   10 cycles
 SCF Done:  E(RM062X) =  -1043.82384688     A.U. after    8 cycles
 Optimization completed.
    -- Stationary point found.
 Normal termination of Gaussian 16 at Sat Jul  2 11:36:23 2022.

 ------------------------------------------------------------------
 #N Geom=AllCheck Guess=TCheck SCRF=Check GenChk RM062X/ChkBas Freq
 ------------------------------------------------------------------

 Structure from the checkpoint file:  "/jobfs/50065312.gadi-pbs/Gau-2570201.chk"
 ----------
 HA.39.freq
 ----------
 Charge =  0 Multiplicity = 1

                         Standard orientation:
 ---------------------------------------------------------------------
 Center     Atomic      Atomic             Coordinates (Angstroms)
 Number     Number       Type             X           Y           Z
 ---------------------------------------------------------------------
      1         16           0       -2.699646    0.085491    0.269939
      2          8           0       -3.426495   -1.036245   -0.295532
      3          8           0       -3.149883    0.784332    1.461946
      4          7           0       -2.555249    1.210882   -0.937349
      5          1           0       -2.161293    0.800101   -1.782294
      6          1           0       -2.027875    2.028226   -0.639637
      7          6           0       -1.014904   -0.505283    0.630853
      8          7           0       -0.298814   -0.705983   -0.616491
      9          6           0        0.798671   -1.697332   -0.521132
     10          6           0        1.978897   -0.854494   -0.108019
     11          6           0        1.631174    0.458015   -0.397563
     12          8           0        0.354342    0.551448   -0.906272
     13          6           0        3.237332   -1.140021    0.398465
     14          6           0        4.129167   -0.081598    0.603702
     15          6           0        3.759157    1.228986    0.296828
     16          6           0        2.491759    1.526613   -0.213418
     17          1           0       -1.167139   -1.459852    1.140983
     18          1           0       -0.535011    0.217321    1.301008
     19          1           0        0.520540   -2.485330    0.181656
     20          1           0        3.528943   -2.160793    0.628680
     21          1           0        5.117414   -0.281211    1.005004
     22          1           0        4.464168    2.037586    0.463645
     23          1           0        2.191133    2.541158   -0.451515
     24          1           0        0.950654   -2.144938   -1.509103
 ---------------------------------------------------------------------

 SCF Done:  E(RM062X) =  -1043.82384688     A.U. after    1 cycles

 The electronic state is 1-A.
 Alpha  occ. eigenvalues --  -90.16282 -19.73032 -19.64378 -19.64207 -14.86051
 Alpha  occ. eigenvalues --  -14.80022 -10.63530 -10.62937 -10.62051 -10.58716
 Alpha  occ. eigenvalues --  -10.58611 -10.58280 -10.58205 -10.57587  -8.47339
 Alpha  occ. eigenvalues --   -6.39545  -6.39493  -6.39396  -1.26548  -1.24489
 Alpha  occ. eigenvalues --   -1.13131  -1.03207  -1.02059  -0.99087  -0.90747
 Alpha  occ. eigenvalues --   -0.86816  -0.84775  -0.76399  -0.72349  -0.72215
 Alpha  occ. eigenvalues --   -0.70372  -0.63986  -0.62173  -0.61768  -0.60684
 Alpha  occ. eigenvalues --   -0.59001  -0.57604  -0.55847  -0.54450  -0.53195
 Alpha  occ. eigenvalues --   -0.52721  -0.51715  -0.50747  -0.48953  -0.47932
 Alpha  occ. eigenvalues --   -0.45137  -0.44037  -0.42675  -0.41748  -0.40088
 Alpha  occ. eigenvalues --   -0.38884  -0.38158  -0.37744  -0.34502  -0.33248
 Alpha  occ. eigenvalues --   -0.30280
 Alpha virt. eigenvalues --   -0.01071  -0.00266   0.00712   0.01085   0.01386
 Alpha virt. eigenvalues --    0.02940   0.03264   0.03408   0.04318   0.04623
 Alpha virt. eigenvalues --    0.05692   0.05836   0.05965   0.07604   0.07952

 Mulliken charges:
               1
     1  S    1.471577
     2  O   -0.572505
     3  O   -0.562991
     4  N   -1.090353
     5  H    0.470531
     6  H    0.466064
     7  C   -0.566320
     8  N   -0.297968
     9  C   -0.454652
    10  C    0.668017
    11  C   -0.183027
    12  O   -0.136795
    13  C   -1.054974
    14  C   -0.062262
    15  C   -0.300072
    16  C    0.265183
    17  H    0.275306
    18  H    0.289196
    19  H    0.235612
    20  H    0.220243
    21  H    0.213136
    22  H    0.215994
    23  H    0.229299
    24  H    0.261760
 Sum of Mulliken charges =   0.00000

 Dipole moment (field-independent basis, Debye):
    X=              7.2851    Y=             -0.2611    Z=             -0.4634  Tot=              7.3045
 Quadrupole moment (field-independent basis, Debye-Ang):
   XX=           -107.5474   YY=            -80.3617   ZZ=            -92.9199
   XY=             -2.1681   XZ=              6.1200   YZ=             -4.6067

  Exact polarizability:     162.430       4.896     131.651      10.967      -1.868      96.790
 Approx polarizability:     173.334       5.538     179.584      16.724      -2.527     130.533

                      1                      2                      3
                      A                      A                      A
 Frequencies --     38.2644                47.9852                68.6071
 Red. masses --      6.4131                 5.8569                 4.8206
 Frc consts  --      0.0055                 0.0079                 0.0134
 IR Inten    --      3.4114                 1.8637                 5.2017

                      4                      5                      6
                      A                      A                      A
 Frequencies --    144.3470               176.8396               233.5886
 Red. masses --      5.5154                 4.0855                 5.8939
 Frc consts  --      0.0677                 0.0753                 0.1895
 IR Inten    --      5.1422                 5.6149                 8.5969

                      7                      8                      9
                      A                      A                      A
 Frequencies --    272.7963               284.4681               323.0481
 Red. masses --      2.4270                 3.3092                 2.0543
 Frc consts  --      0.1064                 0.1578                 0.1263
 IR Inten    --      8.5146                 9.2207                 8.7956

                     10                     11                     12
                      A                      A                      A
 Frequencies --    365.8762               410.6036               425.9530
 Red. masses --      2.5643                 4.4540                 2.9404
 Frc consts  --      0.2022                 0.4424                 0.3143
 IR Inten    --      2.0458                 1.9587                 3.2197

                     13                     14                     15
                      A                      A                      A
 Frequencies --    445.4409               469.0157               501.0674
 Red. masses --      2.3430                 7.1980                 3.4196
 Frc consts  --      0.2739                 0.9329                 0.5058
 IR Inten    --     22.3866                28.4566                 6.5920

                     16                     17                     18
                      A                      A                      A
 Frequencies --    525.2889               558.8496               560.5307
 Red. masses --      5.6540                 3.7770                 5.6306
 Frc consts  --      0.9192                 0.6950                 1.0423
 IR Inten    --     12.1333                 1.3311                20.1483

                     19                     20                     21
                      A                      A                      A
 Frequencies --    618.3199               704.2112               723.6316
 Red. masses --      6.1402                 2.9224                 3.1579
 Frc consts  --      1.3831                 0.8539                 0.9743
 IR Inten    --      2.4013               142.6616                12.5077

                     22                     23                     24
                      A                      A                      A
 Frequencies --    745.5779               775.3906               810.9475
 Red. masses --      3.9604                 1.4024                 2.5526
 Frc consts  --      1.2971                 0.4968                 0.9890
 IR Inten    --    153.8207                65.7703               198.0034

                     25                     26                     27
                      A                      A                      A
 Frequencies --    847.4461               857.6487               880.7447
 Red. masses --      3.8409                 5.1663                 5.4891
 Frc consts  --      1.6252                 2.2390                 2.5087
 IR Inten    --      6.6326                22.9432                22.6160

                     28                     29                     30
                      A                      A                      A
 Frequencies --    881.8263               884.5713               952.4410
 Red. masses --      3.5202                 1.3819                 2.2016
 Frc consts  --      1.6128                 0.6371                 1.1767
 IR Inten    --     22.5163                 3.6432                12.0034

                     31                     32                     33
                      A                      A                      A
 Frequencies --    962.8986               993.5031              1010.4224
 Red. masses --      1.4470                 2.4344                 1.2935
 Frc consts  --      0.7905                 1.4157                 0.7781
 IR Inten    --      1.5131                 5.6784                 0.0293

                     34                     35                     36
                      A                      A                      A
 Frequencies --   1050.0798              1053.4882              1116.7250
 Red. masses --      2.4796                 2.0800                 1.5981
 Frc consts  --      1.6109                 1.3601                 1.1742
 IR Inten    --     11.3790                 1.8626                 9.9082

                     37                     38                     39
                      A                      A                      A
 Frequencies --   1128.0964              1133.3844              1170.4934
 Red. masses --      1.3478                 1.6745                 8.8780
 Frc consts  --      1.0106                 1.2673                 7.1665
 IR Inten    --      3.6286                14.6193               298.3648

                     40                     41                     42
                      A                      A                      A
 Frequencies --   1181.8079              1205.2517              1254.2431
 Red. masses --      1.1554                 2.7646                 1.3756
 Frc consts  --      0.9508                 2.3662                 1.2750
 IR Inten    --      1.5524                 8.4537                11.2036

                     43                     44                     45
                      A                      A                      A
 Frequencies --   1265.2751              1284.5631              1302.4845
 Red. masses --      2.3001                 2.1104                 1.3246
 Frc consts  --      2.1695                 2.0517                 1.3240
 IR Inten    --     40.5300                15.4425                 1.7437

                     46                     47                     48
                      A                      A                      A
 Frequencies --   1341.8515              1343.2524              1377.7060
 Red. masses --      1.5771                 1.5842                 4.0466
 Frc consts  --      1.6730                 1.6842                 4.5254
 IR Inten    --      9.9158                 5.3998                 7.6995

                     49                     50                     51
                      A                      A                      A
 Frequencies --   1395.9657              1458.2780              1516.3773
 Red. masses --      8.8458                 1.1074                 2.3987
 Frc consts  --     10.1563                 1.3875                 3.2496
 IR Inten    --    246.7063                10.5446                35.0609

                     52                     53                     54
                      A                      A                      A
 Frequencies --   1520.7127              1531.6999              1628.6302
 Red. masses --      1.1460                 2.8795                 1.1080
 Frc consts  --      1.5615                 3.9803                 1.7316
 IR Inten    --      5.6783                51.4857                45.4388

                     55                     56                     57
                      A                      A                      A
 Frequencies --   1687.6789              1701.2602              3095.2909
 Red. masses --      7.0575                 7.7726                 1.0592
 Frc consts  --     11.8435                13.2543                 5.9793
 IR Inten    --     27.5790                 7.8405                10.3824

                     58                     59                     60
                      A                      A                      A
 Frequencies --   3099.1130              3164.7232              3180.5001
 Red. masses --      1.0650                 1.1028                 1.1066
 Frc consts  --      6.0264                 6.5078                 6.5950
 IR Inten    --     10.7972                 5.1383                 1.1865

                     61                     62                     63
                      A                      A                      A
 Frequencies --   3223.0289              3231.5941              3244.4558
 Red. masses --      1.0879                 1.0905                 1.0948
 Frc consts  --      6.6585                 6.7099                 6.7899
 IR Inten    --      1.1477                 6.1791                11.3308

                     64                     65                     66
                      A                      A                      A
 Frequencies --   3253.0380              3535.0630              3646.4231
 Red. masses --      1.0966                 1.0477                 1.0979
 Frc consts  --      6.8369                 7.7143                 8.6011
 IR Inten    --      2.8791                36.4436                46.4912

 - Thermochemistry -
 -------------------
 Temperature   298.150 Kelvin.  Pressure   1.00000 Atm.
 Atom     1 has atomic number 16 and mass  31.97207

 Molecular mass:   214.04121 amu.
 Principal axes and moments of inertia in atomic units:
                           1         2         3
     Eigenvalues --  1074.797075427.820005807.99857
           X            0.99997  -0.00140   0.00767
           Y            0.00163   0.99956  -0.02959
           Z           -0.00763   0.02960   0.99953
 This molecule is an asymmetric top.
 Rotational symmetry number  1.
 Warning -- assumption of classical behavior for rotation
           may cause significant error
 Rotational temperatures (Kelvin)      0.08059     0.01596     0.01491
 Rotational constants (GHZ):           1.67915     0.33250     0.31073
 Zero-point vibrational energy     489420.3 (Joules/Mol)
                                  116.97426 (Kcal/Mol)
 Warning -- explicit consideration of  19 degrees of freedom as
           vibrations may cause significant error
 Vibrational temperatures:     55.05    69.04    98.71   207.68   254.43
          (Kelvin)            336.08   392.49   409.29   464.79   526.41
                              590.77   612.85   640.89   674.81   720.92
                              755.77   804.06   806.48   889.62  1013.20
                             1041.14  1072.72  1115.61  1166.77  1219.29
                             1233.97  1267.20  1268.75  1272.70  1370.35
                             1385.40  1429.43  1453.77  1510.83  1515.73
                             1606.72  1623.08  1630.69  1684.08  1700.36
                             1734.09  1804.58  1820.45  1848.20  1873.98
                             1930.63  1932.64  1982.21  2008.48  2098.14
                             2181.73  2187.97  2203.77  2343.24  2428.19
                             2447.73  4453.43  4458.93  4553.33  4576.03
                             4637.22  4649.54  4668.05  4680.40  5086.17
                             5246.39

 Zero-point correction=                           0.186410 (Hartree/Particle)
 Thermal correction to Energy=                    0.198402
 Thermal correction to Enthalpy=                  0.199346
 Thermal correction to Gibbs Free Energy=         0.147082
 Sum of electronic and zero-point Energies=          -1043.637437
 Sum of electronic and thermal Energies=             -1043.625445
 Sum of electronic and thermal Enthalpies=           -1043.624501
 Sum of electronic and thermal Free Energies=        -1043.676765

                     E (Thermal)             CV                S
                      KCal/Mol        Cal/Mol-Kelvin    Cal/Mol-Kelvin
 Total                  124.499             46.870            109.999
 Electronic               0.000              0.000              0.000
 Translational            0.889              2.981             41.986
 Rotational               0.889              2.981             31.894
 Vibrational            122.722             40.909             36.118
 Vibration     1          0.594              1.982              5.347
 Vibration     2          0.595              1.978              4.899
 Vibration     3          0.598              1.969              4.193
 Vibration     4          0.616              1.909              2.745
 Vibration     5          0.628              1.871              2.362
 Vibration     6          0.654              1.790              1.851
 Vibration     7          0.676              1.723              1.578
 Vibration     8          0.683              1.702              1.507
 Vibration     9          0.708              1.629              1.295
 Vibration    10          0.739              1.542              1.097
 Vibration    11          0.775              1.447              0.924
 Vibration    12          0.788              1.414              0.872
 Vibration    13          0.805              1.371              0.810
 Vibration    14          0.826              1.319              0.740
 Vibration    15          0.856              1.248              0.655
 Vibration    16          0.880              1.194              0.598
 Vibration    17          0.914              1.120              0.526
 Vibration    18          0.916              1.117              0.523
 Vibration    19          0.978              0.993              0.419

 Optimization completed.
    -- Stationary point found.
 Normal termination of Gaussian 16 at Sat Jul  2 11:42:06 2022.
