 Gaussian 16, Revision C.01,
 Gaussian 16:  ES64L-G16RevC.01  3-Jul-2019

 --------------------------------------------------
 #M062X/gen 6D INT(grid=ultrafine) OPT Freq=noraman
 --------------------------------------------------

 ----------
 HA.35.freq
 ----------
 Symbolic Z-matrix:
 Charge =  0 Multiplicity = 1

 SCF Done:  E(RM062X) =  -2845.75418313     A.U. after   17 cycles
 SCF Done:  E(RM062X) =  -2845.75723151     A.U. after   14 cycles
 SCF Done:  E(RM062X) =  -2845.75694137     A.U. after   15 cycles
 SCF Done:  E(RM062X) =  -2845.75779644     A.U. after   14 cycles
 SCF Done:  E(RM062X) =  -2845.75823764     A.U. after   14 cycles
 SCF Done:  E(RM062X) =  -2845.75840063     A.U. after   14 cycles
 SCF Done:  E(RM062X) =  -2845.75856245     A.U. after   13 cycles
 SCF Done:  E(RM062X) =  -2845.75866505     A.U. after   14 cycles
 SCF Done:  E(RM062X) =  -2845.75871084     A.U. after   13 cycles
 SCF Done:  E(RM062X) =  -2845.75874460     A.U. after   13 cycles
 SCF Done:  E(RM062X) =  -2845.75875980     A.U. after   12 cycles
 SCF Done:  E(RM062X) =  -2845.75877876     A.U. after   12 cycles
 SCF Done:  E(RM062X) =  -2845.75879413     A.U. after   12 cycles
 SCF Done:  E(RM062X) =  -2845.75881821     A.U. after   12 cycles
 SCF Done:  E(RM062X) =  -2845.75883207     A.U. after   12 cycles
 SCF Done:  E(RM062X) =  -2845.75883707     A.U. after   12 cycles
 SCF Done:  E(RM062X) =  -2845.75883850     A.U. after   10 cycles
 SCF Done:  E(RM062X) =  -2845.75883893     A.U. after    9 cycles
 SCF Done:  E(RM062X) =  -2845.75883919     A.U. after   10 cycles
 Optimization completed.
    -- Stationary point found.
 Normal termination of Gaussian 16 at Fri Jul  1 23:08:14 2022.

 ------------------------------------------------------------------
 #N Geom=AllCheck Guess=TCheck SCRF=Check GenChk RM062X/ChkBas Freq
 ------------------------------------------------------------------

 Structure from the checkpoint file:  "/jobfs/49976749.gadi-pbs/Gau-543623.chk"
 ----------
 HA.35.freq
 ----------
 Charge =  0 Multiplicity = 1

                         Standard orientation:
 ---------------------------------------------------------------------
 Center     Atomic      Atomic             Coordinates (Angstroms)
 Number     Number       Type             X           Y           Z
 ---------------------------------------------------------------------
      1          6           0       -3.269047   -0.209152    0.105322
      2          6           0       -2.716574   -1.486453   -0.105506
      3         17           0       -3.722680   -2.891877   -0.164833
      4          6           0       -1.355903   -1.660769   -0.282698
      5          1           0       -0.967033   -2.658470   -0.461749
      6          6           0       -0.479241   -0.560267   -0.239874
      7          6           0       -1.045504    0.701311   -0.007569
      8         16           0        0.024342    2.089296    0.104808
      9          6           0       -2.413176    0.879672    0.146628
     10          1           0       -2.792188    1.887174    0.287600
     11         16           0       -5.042419   -0.002627    0.301011
     12          8           0       -5.657919   -0.342986   -0.966650
     13          8           0       -5.415307   -0.641178    1.547882
     14          7           0       -5.300040    1.608671    0.516404
     15          1           0       -5.195394    2.203856   -0.297592
     16          1           0       -5.032557    2.000886    1.412110
     17          7           0        0.858866   -0.723791   -0.448174
     18          6           0        1.842774    0.342881   -0.516741
     19          7           0        1.199180    1.573187   -1.015380
     20          8           0       -0.633602    3.265603   -0.439653
     21          8           0        0.616917    2.152884    1.436754
     22          1           0        1.200129   -1.655476   -0.654382
     23          6           0        2.141621    2.670097   -1.303915
     24          6           0        2.970677   -0.072224   -1.464219
     25         16           0        3.685631   -1.711602   -1.107838
     26          6           0        4.182986   -1.556381    0.630107
     27          6           0        5.338338   -0.610260    0.876302
     28          1           0        2.262635    0.547448    0.483502
     29          1           0        2.641078    2.463003   -2.251081
     30          1           0        2.884904    2.799189   -0.505470
     31          1           0        1.568023    3.590969   -1.417614
     32          1           0        3.764956    0.672859   -1.456033
     33          1           0        2.573086   -0.158769   -2.481312
     34          1           0        4.504041   -2.555348    0.936638
     35          1           0        3.349675   -1.256342    1.271773
     36          9           0        6.423379   -0.926865    0.162442
     37          9           0        5.684144   -0.627668    2.172749
     38          9           0        5.011905    0.662097    0.569746
 ---------------------------------------------------------------------

 SCF Done:  E(RM062X) =  -2845.75883919     A.U. after    1 cycles

 The electronic state is 1-A.
 Alpha  occ. eigenvalues -- -102.69306 -90.18460 -90.18025 -89.97684 -25.32998
 Alpha  occ. eigenvalues --  -25.32653 -25.32643 -19.66957 -19.66480 -19.64881
 Alpha  occ. eigenvalues --  -19.64880 -14.83222 -14.83138 -14.81343 -10.83968
 Alpha  occ. eigenvalues --  -10.67862 -10.66312 -10.66246 -10.64006 -10.62931
 Alpha  occ. eigenvalues --  -10.61857 -10.61726 -10.61596 -10.61149 -10.60177
 Alpha  occ. eigenvalues --   -9.83947  -8.49584  -8.48843  -8.32118  -7.56372
 Alpha  occ. eigenvalues --   -7.55673  -7.55642  -6.41777  -6.41727  -6.41650
 Alpha  occ. eigenvalues --   -6.41092  -6.40997  -6.40940  -6.24203  -6.23936
 Alpha  occ. eigenvalues --   -6.23499  -1.49495  -1.40226  -1.40095  -1.26930
 Alpha  occ. eigenvalues --   -1.25558  -1.15221  -1.13911  -1.13221  -1.06655
 Alpha  occ. eigenvalues --   -1.03938  -1.03104  -0.98430  -0.96945  -0.92566
 Alpha  occ. eigenvalues --   -0.89709  -0.88963  -0.84474  -0.83012  -0.79955
 Alpha  occ. eigenvalues --   -0.77882  -0.75743  -0.74629  -0.73325  -0.72184
 Alpha  occ. eigenvalues --   -0.71740  -0.68071  -0.67514  -0.66809  -0.65427
 Alpha  occ. eigenvalues --   -0.63903  -0.63821  -0.62215  -0.60141  -0.59860
 Alpha  occ. eigenvalues --   -0.59804  -0.58489  -0.57916  -0.57242  -0.56998
 Alpha  occ. eigenvalues --   -0.56191  -0.55577  -0.55340  -0.54619  -0.53918
 Alpha  occ. eigenvalues --   -0.53833  -0.53592  -0.53082  -0.52312  -0.51196
 Alpha  occ. eigenvalues --   -0.50951  -0.50362  -0.49337  -0.48092  -0.47709
 Alpha  occ. eigenvalues --   -0.45529  -0.44209  -0.43112  -0.42886  -0.42467
 Alpha  occ. eigenvalues --   -0.41672  -0.41105  -0.40608  -0.40158  -0.39787
 Alpha  occ. eigenvalues --   -0.39023  -0.38541  -0.37727  -0.35961  -0.34076
 Alpha  occ. eigenvalues --   -0.33728  -0.29999
 Alpha virt. eigenvalues --   -0.03637  -0.02157  -0.01267  -0.00518  -0.00151
 Alpha virt. eigenvalues --    0.00313   0.01378   0.02290   0.02621   0.02903
 Alpha virt. eigenvalues --    0.03339   0.03460   0.03885   0.04426   0.04880

 Mulliken charges:
               1
     1  C   -2.239933
     2  C    0.191130
     3  Cl   0.376087
     4  C   -0.167891
     5  H    0.235184
     6  C    0.707775
     7  C   -1.018145
     8  S    1.653217
     9  C    0.571755
    10  H    0.262571
    11  S    1.675146
    12  O   -0.399133
    13  O   -0.396222
    14  N   -1.146290
    15  H    0.466640
    16  H    0.465161
    17  N   -0.462031
    18  C   -1.053633
    19  N   -0.482716
    20  O   -0.533970
    21  O   -0.351144
    22  H    0.445232
    23  C   -0.502855
    24  C   -0.235000
    25  S    0.346801
    26  C   -0.787739
    27  C    0.941657
    28  H    0.296152
    29  H    0.241523
    30  H    0.271575
    31  H    0.272429
    32  H    0.303652
    33  H    0.298900
    34  H    0.297095
    35  H    0.305203
    36  F   -0.267173
    37  F   -0.286387
    38  F   -0.294621
 Sum of Mulliken charges =  -0.00000

 Dipole moment (field-independent basis, Debye):
    X=              6.4612    Y=             -0.3048    Z=             -2.0496  Tot=              6.7853
 Quadrupole moment (field-independent basis, Debye-Ang):
   XX=           -211.9767   YY=           -168.6405   ZZ=           -179.9258
   XY=            -19.7377   XZ=             -5.8660   YZ=             -4.1525

  Exact polarizability:     306.672       5.793     232.346      -7.888       2.347     167.938
 Approx polarizability:     316.461       2.589     298.496      -2.262       3.261     238.394

                      1                      2                      3
                      A                      A                      A
 Frequencies --     11.1354                22.3028                28.7441
 Red. masses --     11.5234                12.9078                10.1200
 Frc consts  --      0.0008                 0.0038                 0.0049
 IR Inten    --      0.6852                 1.0329                 0.7610

                      4                      5                      6
                      A                      A                      A
 Frequencies --     35.2795                45.3237                62.5775
 Red. masses --     11.8857                 8.1167                11.1658
 Frc consts  --      0.0087                 0.0098                 0.0258
 IR Inten    --      0.5105                 4.7579                 2.6572

                      7                      8                      9
                      A                      A                      A
 Frequencies --     77.2085                90.1894               105.7008
 Red. masses --      5.6355                 8.0316                 7.1987
 Frc consts  --      0.0198                 0.0385                 0.0474
 IR Inten    --      1.3712                 3.4493                 1.9121

                     10                     11                     12
                      A                      A                      A
 Frequencies --    122.5762               153.8310               172.6860
 Red. masses --      7.9987                 5.4060                12.7550
 Frc consts  --      0.0708                 0.0754                 0.2241
 IR Inten    --      1.8673                 8.6931                 0.3150

                     13                     14                     15
                      A                      A                      A
 Frequencies --    182.8938               194.0713               199.8748
 Red. masses --     10.3282                 6.9631                14.3394
 Frc consts  --      0.2036                 0.1545                 0.3375
 IR Inten    --      0.5228                 2.7938                 1.2172

                     16                     17                     18
                      A                      A                      A
 Frequencies --    212.3705               240.4512               245.2503
 Red. masses --      6.7580                 3.0515                 4.0748
 Frc consts  --      0.1796                 0.1039                 0.1444
 IR Inten    --      2.2539                 6.5971                 3.8867

                     19                     20                     21
                      A                      A                      A
 Frequencies --    260.7689               271.5115               298.2243
 Red. masses --      4.8419                 2.0613                 5.8278
 Frc consts  --      0.1940                 0.0895                 0.3054
 IR Inten    --     22.4405                16.4328                 9.4871

                     22                     23                     24
                      A                      A                      A
 Frequencies --    304.2528               326.3217               340.2723
 Red. masses --      7.8961                 3.2686                 2.4870
 Frc consts  --      0.4307                 0.2051                 0.1697
 IR Inten    --      0.5653                12.5769                16.1709

                     25                     26                     27
                      A                      A                      A
 Frequencies --    351.1294               361.2612               366.2175
 Red. masses --      2.6859                 5.8941                 1.4606
 Frc consts  --      0.1951                 0.4532                 0.1154
 IR Inten    --      1.3639                 7.5262               296.0808

                     28                     29                     30
                      A                      A                      A
 Frequencies --    368.1749               389.5101               397.4873
 Red. masses --      4.0614                 2.5796                 1.4807
 Frc consts  --      0.3244                 0.2306                 0.1378
 IR Inten    --     29.8695                14.7381                52.8718

                     31                     32                     33
                      A                      A                      A
 Frequencies --    421.5746               446.0382               457.9939
 Red. masses --      3.9472                 5.3984                 4.6385
 Frc consts  --      0.4133                 0.6328                 0.5733
 IR Inten    --      2.0884                11.0313                11.3802

                     34                     35                     36
                      A                      A                      A
 Frequencies --    466.5475               500.5149               507.7321
 Red. masses --      3.9901                 7.5237                 1.6334
 Frc consts  --      0.5117                 1.1105                 0.2481
 IR Inten    --     10.3141                20.9961                23.4241

                     37                     38                     39
                      A                      A                      A
 Frequencies --    520.9066               531.3913               536.4498
 Red. masses --      4.7349                12.5359                 7.4099
 Frc consts  --      0.7570                 2.0856                 1.2564
 IR Inten    --      8.4705                 4.9001                 0.3000

                     40                     41                     42
                      A                      A                      A
 Frequencies --    544.0911               556.8536               573.5724
 Red. masses --      9.0877                 8.6811                 4.1957
 Frc consts  --      1.5851                 1.5860                 0.8133
 IR Inten    --     84.7983                56.2591                29.0234

                     43                     44                     45
                      A                      A                      A
 Frequencies --    615.6804               646.7105               662.3786
 Red. masses --      8.9233                 8.9294                 9.8442
 Frc consts  --      1.9929                 2.2004                 2.5447
 IR Inten    --    100.9385                23.5941                 3.9910

                     46                     47                     48
                      A                      A                      A
 Frequencies --    687.0607               708.6977               714.1330
 Red. masses --      6.7034                 7.4832                 5.2061
 Frc consts  --      1.8644                 2.2144                 1.5643
 IR Inten    --     24.3564                44.5959                12.5910

                     49                     50                     51
                      A                      A                      A
 Frequencies --    728.8860               771.4227               800.7393
 Red. masses --      4.3199                 4.7841                 6.6342
 Frc consts  --      1.3522                 1.6774                 2.5062
 IR Inten    --      5.8660                11.3848                20.3902

                     52                     53                     54
                      A                      A                      A
 Frequencies --    826.1616               861.1095               873.6609
 Red. masses --      5.2038                 2.4114                 1.5270
 Frc consts  --      2.0927                 1.0535                 0.6867
 IR Inten    --     79.8989                23.9898                21.8208

                     55                     56                     57
                      A                      A                      A
 Frequencies --    876.4274               881.8921               898.3183
 Red. masses --      4.5458                 4.7366                 2.3192
 Frc consts  --      2.0573                 2.1704                 1.1027
 IR Inten    --      9.8364               107.8184                 3.4561

                     58                     59                     60
                      A                      A                      A
 Frequencies --    933.3225               987.9570               998.8572
 Red. masses --      1.3530                 4.2958                 3.0612
 Frc consts  --      0.6944                 2.4704                 1.7995
 IR Inten    --      5.8632                57.2242               110.6002

                     61                     62                     63
                      A                      A                      A
 Frequencies --   1068.8630              1092.6019              1100.9130
 Red. masses --      1.2857                 2.3618                 4.9212
 Frc consts  --      0.8654                 1.6612                 3.5142
 IR Inten    --      0.4898                 3.0118                23.8467

                     64                     65                     66
                      A                      A                      A
 Frequencies --   1129.6095              1140.9834              1154.0552
 Red. masses --      3.0170                 1.7736                 1.4640
 Frc consts  --      2.2682                 1.3604                 1.1488
 IR Inten    --     49.9955               118.4127                 8.8541

                     67                     68                     69
                      A                      A                      A
 Frequencies --   1169.8727              1172.4540              1184.8990
 Red. masses --      2.2242                 9.7551                 7.3092
 Frc consts  --      1.7935                 7.9009                 6.0462
 IR Inten    --     11.2752               320.9745               156.6206

                     70                     71                     72
                      A                      A                      A
 Frequencies --   1198.4368              1205.8094              1234.7600
 Red. masses --      4.7755                 3.0148                 1.8243
 Frc consts  --      4.0411                 2.5826                 1.6387
 IR Inten    --    128.9408               216.3873                23.1615

                     73                     74                     75
                      A                      A                      A
 Frequencies --   1239.5487              1275.3818              1294.4212
 Red. masses --      1.3683                 1.3262                 2.4685
 Frc consts  --      1.2387                 1.2710                 2.4369
 IR Inten    --     18.1733                24.5781               130.4309

                     76                     77                     78
                      A                      A                      A
 Frequencies --   1317.6177              1330.1453              1335.2382
 Red. masses --      2.6161                 1.4632                 2.5141
 Frc consts  --      2.6760                 1.5253                 2.6409
 IR Inten    --     22.9631                16.2485               170.9694

                     79                     80                     81
                      A                      A                      A
 Frequencies --   1347.5472              1365.2099              1379.8472
 Red. masses --     12.2293                 4.4706                 2.5194
 Frc consts  --     13.0840                 4.9092                 2.8263
 IR Inten    --    187.3118                97.1240               130.8045

                     82                     83                     84
                      A                      A                      A
 Frequencies --   1390.6678              1396.7236              1409.2884
 Red. masses --      1.6419                15.0638                 1.3498
 Frc consts  --      1.8709                17.3143                 1.5795
 IR Inten    --     19.9523               247.8032                52.9606

                     85                     86                     87
                      A                      A                      A
 Frequencies --   1435.0689              1473.3826              1478.8130
 Red. masses --      2.1540                 1.1644                 1.1550
 Frc consts  --      2.6136                 1.4892                 1.4882
 IR Inten    --      7.7551                 1.6606                26.5530

                     88                     89                     90
                      A                      A                      A
 Frequencies --   1489.4457              1518.9129              1526.1658
 Red. masses --      1.1029                 2.3805                 1.0756
 Frc consts  --      1.4416                 3.2358                 1.4760
 IR Inten    --      6.5181                17.6255                16.7046

                     91                     92                     93
                      A                      A                      A
 Frequencies --   1537.2452              1574.6837              1605.1310
 Red. masses --      1.0474                 3.4414                 1.1273
 Frc consts  --      1.4583                 5.0278                 1.7112
 IR Inten    --     20.5273               402.5968                43.1066

                     94                     95                     96
                      A                      A                      A
 Frequencies --   1641.8047              1683.8127              3019.5137
 Red. masses --      5.4477                 7.2498                 1.0822
 Frc consts  --      8.6518                12.1106                 5.8133
 IR Inten    --     57.1256               516.5312                35.9644

                     97                     98                     99
                      A                      A                      A
 Frequencies --   3066.0858              3116.9958              3122.1878
 Red. masses --      1.0460                 1.0656                 1.0608
 Frc consts  --      5.7934                 6.0997                 6.0929
 IR Inten    --     33.1874                 1.5330                 3.5008

                    100                    101                    102
                      A                      A                      A
 Frequencies --   3169.9787              3180.1175              3202.3353
 Red. masses --      1.0910                 1.1056                 1.1035
 Frc consts  --      6.4595                 6.5879                 6.6672
 IR Inten    --      8.5558                 1.0484                 0.7932

                    103                    104                    105
                      A                      A                      A
 Frequencies --   3208.2031              3235.2821              3248.8936
 Red. masses --      1.1006                 1.0921                 1.0904
 Frc consts  --      6.6743                 6.7350                 6.7814
 IR Inten    --      1.6344                 0.9786                 2.4636

                    106                    107                    108
                      A                      A                      A
 Frequencies --   3575.6465              3606.9399              3711.0313
 Red. masses --      1.0446                 1.0777                 1.1049
 Frc consts  --      7.8692                 8.2607                 8.9654
 IR Inten    --     59.9052               156.9440                70.9490

 - Thermochemistry -
 -------------------
 Temperature   298.150 Kelvin.  Pressure   1.00000 Atm.
 Atom     1 has atomic number  6 and mass  12.00000

 Molecular mass:   438.97088 amu.
 Principal axes and moments of inertia in atomic units:
                           1         2         3
     Eigenvalues --  5297.38474********************
           X            0.99997  -0.00454  -0.00594
           Y            0.00446   0.99990  -0.01306
           Z            0.00600   0.01303   0.99990
 This molecule is an asymmetric top.
 Rotational symmetry number  1.
 Warning -- assumption of classical behavior for rotation
           may cause significant error
 Rotational temperatures (Kelvin)      0.01635     0.00369     0.00328
 Rotational constants (GHZ):           0.34069     0.07683     0.06840
 Zero-point vibrational energy     694655.0 (Joules/Mol)
                                  166.02654 (Kcal/Mol)
 Warning -- explicit consideration of  43 degrees of freedom as
           vibrations may cause significant error
 Vibrational temperatures:     16.02    32.09    41.36    50.76    65.21
          (Kelvin)             90.04   111.09   129.76   152.08   176.36
                              221.33   248.46   263.14   279.23   287.58
                              305.55   345.96   352.86   375.19   390.64
                              429.08   437.75   469.50   489.58   505.20
                              519.77   526.91   529.72   560.42   571.90
                              606.55   641.75   658.95   671.26   720.13
                              730.51   749.47   764.55   771.83   782.83
                              801.19   825.24   885.83   930.47   953.02
                              988.53  1019.66  1027.48  1048.70  1109.91
                             1152.09  1188.66  1238.94  1257.00  1260.98
                             1268.85  1292.48  1342.84  1421.45  1437.13
                             1537.86  1572.01  1583.97  1625.26  1641.62
                             1660.43  1683.19  1686.90  1704.81  1724.28
                             1734.89  1776.54  1783.43  1834.99  1862.38
                             1895.76  1913.78  1921.11  1938.82  1964.23
                             1985.29  2000.86  2009.57  2027.65  2064.74
                             2119.87  2127.68  2142.98  2185.38  2195.81
                             2211.75  2265.62  2309.43  2362.19  2422.63
                             4344.41  4411.41  4484.66  4492.13  4560.89
                             4575.48  4607.45  4615.89  4654.85  4674.43
                             5144.56  5189.58  5339.35

 Zero-point correction=                           0.264580 (Hartree/Particle)
 Thermal correction to Energy=                    0.289205
 Thermal correction to Enthalpy=                  0.290149
 Thermal correction to Gibbs Free Energy=         0.207125
 Sum of electronic and zero-point Energies=          -2845.494259
 Sum of electronic and thermal Energies=             -2845.469634
 Sum of electronic and thermal Enthalpies=           -2845.468690
 Sum of electronic and thermal Free Energies=        -2845.551714

                     E (Thermal)             CV                S
                      KCal/Mol        Cal/Mol-Kelvin    Cal/Mol-Kelvin
 Total                  181.479             91.498            174.739
 Electronic               0.000              0.000              0.000
 Translational            0.889              2.981             44.127
 Rotational               0.889              2.981             36.438
 Vibrational            179.702             85.537             94.173
 Vibration     1          0.593              1.987              7.797
 Vibration     2          0.593              1.985              6.418
 Vibration     3          0.593              1.984              5.914
 Vibration     4          0.594              1.982              5.508
 Vibration     5          0.595              1.979              5.012
 Vibration     6          0.597              1.972              4.374
 Vibration     7          0.599              1.964              3.961
 Vibration     8          0.602              1.956              3.656
 Vibration     9          0.605              1.945              3.346
 Vibration    10          0.610              1.930              3.059
 Vibration    11          0.619              1.898              2.624
 Vibration    12          0.626              1.876              2.406
 Vibration    13          0.630              1.863              2.299
 Vibration    14          0.635              1.848              2.189
 Vibration    15          0.638              1.840              2.134
 Vibration    16          0.643              1.822              2.023
 Vibration    17          0.658              1.778              1.800
 Vibration    18          0.660              1.771              1.764
 Vibration    19          0.669              1.744              1.657
 Vibration    20          0.675              1.726              1.587
 Vibration    21          0.691              1.677              1.427
 Vibration    22          0.695              1.666              1.393
 Vibration    23          0.710              1.623              1.278
 Vibration    24          0.720              1.595              1.211
 Vibration    25          0.728              1.573              1.161
 Vibration    26          0.735              1.552              1.117
 Vibration    27          0.739              1.542              1.096
 Vibration    28          0.741              1.538              1.087
 Vibration    29          0.757              1.493              1.002
 Vibration    30          0.764              1.476              0.972
 Vibration    31          0.784              1.423              0.887
 Vibration    32          0.805              1.370              0.808
 Vibration    33          0.816              1.343              0.772
 Vibration    34          0.824              1.324              0.747
 Vibration    35          0.856              1.249              0.657
 Vibration    36          0.863              1.233              0.639
 Vibration    37          0.876              1.204              0.608
 Vibration    38          0.886              1.181              0.584
 Vibration    39          0.891              1.169              0.573
 Vibration    40          0.899              1.153              0.557
 Vibration    41          0.912              1.125              0.530
 Vibration    42          0.930              1.088              0.497
 Vibration    43          0.975              0.999              0.423

                           ! Non-Optimized Parameters !
 Normal termination of Gaussian 16 at Fri Jul  1 23:39:02 2022.
