 Gaussian 16, Revision C.01,
 Gaussian 16:  ES64L-G16RevC.01  3-Jul-2019

 --------------------------------------------------
 #M062X/gen 6D INT(grid=ultrafine) OPT Freq=noraman
 --------------------------------------------------

 ----------
 HA.34.freq
 ----------
 Symbolic Z-matrix:
 Charge =  0 Multiplicity = 1

 SCF Done:  E(RM062X) =  -2516.03718938     A.U. after   17 cycles
 SCF Done:  E(RM062X) =  -2516.03971926     A.U. after   15 cycles
 SCF Done:  E(RM062X) =  -2516.03999242     A.U. after   15 cycles
 SCF Done:  E(RM062X) =  -2516.04005668     A.U. after   14 cycles
 SCF Done:  E(RM062X) =  -2516.04009918     A.U. after   13 cycles
 SCF Done:  E(RM062X) =  -2516.04012051     A.U. after   13 cycles
 SCF Done:  E(RM062X) =  -2516.04012951     A.U. after   13 cycles
 SCF Done:  E(RM062X) =  -2516.04013245     A.U. after   12 cycles
 SCF Done:  E(RM062X) =  -2516.04013337     A.U. after   13 cycles
 SCF Done:  E(RM062X) =  -2516.04013360     A.U. after   12 cycles
 SCF Done:  E(RM062X) =  -2516.04013372     A.U. after   12 cycles
 SCF Done:  E(RM062X) =  -2516.04013391     A.U. after   10 cycles
 SCF Done:  E(RM062X) =  -2516.04013401     A.U. after   10 cycles
 Optimization completed.
    -- Stationary point found.
 Normal termination of Gaussian 16 at Fri Jul  1 09:22:29 2022.

 ------------------------------------------------------------------
 #N Geom=AllCheck Guess=TCheck SCRF=Check GenChk RM062X/ChkBas Freq
 ------------------------------------------------------------------

 Structure from the checkpoint file:  "/jobfs/49788884.gadi-pbs/Gau-2814976.chk"
 ----------
 HA.34.freq
 ----------
 Charge =  0 Multiplicity = 1

                         Standard orientation:
 ---------------------------------------------------------------------
 Center     Atomic      Atomic             Coordinates (Angstroms)
 Number     Number       Type             X           Y           Z
 ---------------------------------------------------------------------
      1          6           0       -1.999076    0.178913   -0.143830
      2          6           0       -1.783697   -1.194333   -0.324873
      3         17           0       -3.068211   -2.349749   -0.129117
      4          6           0       -0.529052   -1.689247   -0.643148
      5          1           0       -0.391060   -2.758683   -0.769319
      6          6           0        0.546390   -0.804473   -0.794618
      7          6           0        0.336603    0.571907   -0.616844
      8          6           0        1.463105    1.520227   -0.807339
      9          6           0       -0.925873    1.050878   -0.293941
     10         16           0       -3.606066    0.888273    0.213789
     11          8           0       -3.375937    2.307417    0.406506
     12          8           0       -4.550091    0.375053   -0.757601
     13          7           0       -4.093944    0.305609    1.689201
     14          1           0       -3.485827    0.599152    2.449204
     15          1           0       -4.278587   -0.694248    1.683386
     16          7           0        1.795905   -1.260463   -1.154278
     17          6           0        2.981613   -0.460705   -0.973944
     18          7           0        2.661670    0.929325   -1.156211
     19          1           0        1.930197   -2.261128   -1.208408
     20          8           0        1.347099    2.726965   -0.731067
     21          1           0       -1.071031    2.120524   -0.168902
     22          1           0        3.440227    1.575768   -1.226988
     23          6           0        3.669917   -0.758280    0.385907
     24          1           0        3.714965   -0.752115   -1.736075
     25          1           0        3.897860   -1.822172    0.464670
     26         17           0        2.632656   -0.335555    1.759449
     27         17           0        5.227716    0.108506    0.450486
 ---------------------------------------------------------------------

 SCF Done:  E(RM062X) =  -2516.04013401     A.U. after    2 cycles

 The electronic state is 1-A.
 Alpha  occ. eigenvalues -- -102.70610-102.70459-102.70401 -90.17430 -19.64760
 Alpha  occ. eigenvalues --  -19.64602 -19.63900 -14.83890 -14.82203 -14.80571
 Alpha  occ. eigenvalues --  -10.70658 -10.69363 -10.68707 -10.66447 -10.65434
 Alpha  occ. eigenvalues --  -10.61044 -10.60080 -10.60026 -10.59407  -9.85317
 Alpha  occ. eigenvalues --   -9.85101  -9.85063  -8.48306  -7.57724  -7.57510
 Alpha  occ. eigenvalues --   -7.57482  -7.57035  -7.57020  -7.56846  -7.56804
 Alpha  occ. eigenvalues --   -7.56778  -7.56761  -6.40525  -6.40473  -6.40409
 Alpha  occ. eigenvalues --   -1.25250  -1.19370  -1.13883  -1.13771  -1.05951
 Alpha  occ. eigenvalues --   -1.03539  -1.03254  -1.02603  -0.97449  -0.95352
 Alpha  occ. eigenvalues --   -0.90936  -0.88378  -0.84586  -0.77473  -0.76616
 Alpha  occ. eigenvalues --   -0.75410  -0.72843  -0.68716  -0.65733  -0.65649
 Alpha  occ. eigenvalues --   -0.62666  -0.62336  -0.61274  -0.59644  -0.58275
 Alpha  occ. eigenvalues --   -0.57178  -0.55837  -0.55759  -0.54684  -0.52930
 Alpha  occ. eigenvalues --   -0.52861  -0.51899  -0.51642  -0.50115  -0.49703
 Alpha  occ. eigenvalues --   -0.46247  -0.45736  -0.43060  -0.42783  -0.42022
 Alpha  occ. eigenvalues --   -0.41544  -0.40973  -0.40586  -0.40169  -0.39809
 Alpha  occ. eigenvalues --   -0.38738  -0.38448  -0.37830  -0.36129  -0.35202
 Alpha  occ. eigenvalues --   -0.33752  -0.30124
 Alpha virt. eigenvalues --   -0.04503  -0.02691  -0.01974  -0.00555   0.00130
 Alpha virt. eigenvalues --    0.01219   0.01507   0.02029   0.02502   0.02707
 Alpha virt. eigenvalues --    0.03590   0.04387   0.04572   0.05257   0.05683

 Mulliken charges:
               1
     1  C   -2.645731
     2  C    1.354013
     3  Cl   0.248195
     4  C   -1.432293
     5  H    0.230398
     6  C    0.301514
     7  C    1.387055
     8  C    0.719169
     9  C   -0.449434
    10  S    1.448014
    11  O   -0.558294
    12  O   -0.393846
    13  N   -0.915339
    14  H    0.445956
    15  H    0.443460
    16  N   -0.557539
    17  C   -0.096220
    18  N   -0.598156
    19  H    0.441352
    20  O   -0.491105
    21  H    0.317047
    22  H    0.471512
    23  C   -0.386145
    24  H    0.255545
    25  H    0.299047
    26  Cl   0.112316
    27  Cl   0.049508
 Sum of Mulliken charges =   0.00000

 Dipole moment (field-independent basis, Debye):
    X=              6.5890    Y=             -7.8886    Z=              0.9437  Tot=             10.3216
 Quadrupole moment (field-independent basis, Debye-Ang):
   XX=           -151.2508   YY=           -143.6878   ZZ=           -134.7776
   XY=              1.8902   XZ=            -17.3885   YZ=              2.7103

  Exact polarizability:     259.868       7.375     181.753     -18.411       3.915     131.644
 Approx polarizability:     278.970      10.425     252.726     -24.392      11.019     175.059

                      1                      2                      3
                      A                      A                      A
 Frequencies --     29.6974                39.9455                54.9125
 Red. masses --     14.3145                14.2837                12.8350
 Frc consts  --      0.0074                 0.0134                 0.0228
 IR Inten    --      0.5298                 1.5497                 1.5107

                      4                      5                      6
                      A                      A                      A
 Frequencies --     65.6395                80.1088               124.4011
 Red. masses --      9.2155                14.4964                 8.8048
 Frc consts  --      0.0234                 0.0548                 0.0803
 IR Inten    --      1.8234                 0.2343                 3.5430

                      7                      8                      9
                      A                      A                      A
 Frequencies --    139.7542               173.8141               191.0791
 Red. masses --      9.8238                 8.6269                15.3897
 Frc consts  --      0.1130                 0.1536                 0.3311
 IR Inten    --      0.1278                 1.7043                 1.2122

                     10                     11                     12
                      A                      A                      A
 Frequencies --    199.3739               231.7651               242.5270
 Red. masses --      8.7182                11.2789                 4.7900
 Frc consts  --      0.2042                 0.3570                 0.1660
 IR Inten    --      2.8951                 4.9934                20.3900

                     13                     14                     15
                      A                      A                      A
 Frequencies --    257.5156               272.3143               289.6838
 Red. masses --      4.2177                 6.6089                11.5664
 Frc consts  --      0.1648                 0.2887                 0.5719
 IR Inten    --      5.9011                 3.3146                 2.4164

                     16                     17                     18
                      A                      A                      A
 Frequencies --    308.5288               324.0252               372.6018
 Red. masses --      2.2123                 6.7750                 1.3087
 Frc consts  --      0.1241                 0.4191                 0.1070
 IR Inten    --      4.8188                 1.0994                76.6160

                     19                     20                     21
                      A                      A                      A
 Frequencies --    386.5318               399.6596               446.9782
 Red. masses --      4.6356                 8.7089                 2.7322
 Frc consts  --      0.4081                 0.8196                 0.3216
 IR Inten    --     10.0280                32.0936                28.6713

                     22                     23                     24
                      A                      A                      A
 Frequencies --    451.6434               485.7826               505.4576
 Red. masses --      2.9336                 5.2648                 7.0394
 Frc consts  --      0.3526                 0.7320                 1.0596
 IR Inten    --      3.5040                 5.8934                61.1530

                     25                     26                     27
                      A                      A                      A
 Frequencies --    527.1977               537.0027               547.1735
 Red. masses --      3.4869                 4.3951                 4.2650
 Frc consts  --      0.5710                 0.7467                 0.7523
 IR Inten    --     35.7219                 7.7379                32.3334

                     28                     29                     30
                      A                      A                      A
 Frequencies --    582.2245               609.5577               641.5495
 Red. masses --      2.6337                 3.0909                 5.7595
 Frc consts  --      0.5260                 0.6767                 1.3967
 IR Inten    --     15.8166                84.1388                42.1967

                     31                     32                     33
                      A                      A                      A
 Frequencies --    645.2574               655.6430               700.7059
 Red. masses --      5.5582                 3.5462                 4.1555
 Frc consts  --      1.3635                 0.8981                 1.2021
 IR Inten    --    119.3671               137.4152               158.1312

                     34                     35                     36
                      A                      A                      A
 Frequencies --    708.2114               724.3688               782.2685
 Red. masses --      4.5062                 6.1275                 5.8114
 Frc consts  --      1.3317                 1.8943                 2.0953
 IR Inten    --    198.6945                 1.7051                18.3093

                     37                     38                     39
                      A                      A                      A
 Frequencies --    789.2093               814.7040               865.2148
 Red. masses --      6.9588                 6.3691                 3.4158
 Frc consts  --      2.5537                 2.4907                 1.5066
 IR Inten    --     19.7995                54.0037                11.4912

                     40                     41                     42
                      A                      A                      A
 Frequencies --    866.3622               920.9739               964.1918
 Red. masses --      1.6485                 6.0158                 4.2406
 Frc consts  --      0.7290                 3.0063                 2.3228
 IR Inten    --     42.7259                35.7454                73.4746

                     43                     44                     45
                      A                      A                      A
 Frequencies --    969.0276               991.5252              1072.7958
 Red. masses --      5.1766                 1.3611                 2.8094
 Frc consts  --      2.8640                 0.7884                 1.9050
 IR Inten    --     61.4640                 6.7881                 6.1828

                     46                     47                     48
                      A                      A                      A
 Frequencies --   1113.0817              1121.8243              1149.7204
 Red. masses --      1.2571                 3.1777                 2.4005
 Frc consts  --      0.9176                 2.3562                 1.8695
 IR Inten    --      4.4909                29.8648                20.5459

                     49                     50                     51
                      A                      A                      A
 Frequencies --   1184.8340              1216.5719              1262.7681
 Red. masses --      4.9467                 2.4926                 1.2667
 Frc consts  --      4.0915                 2.1736                 1.1901
 IR Inten    --    266.8763                58.1325                35.0980

                     52                     53                     54
                      A                      A                      A
 Frequencies --   1267.3974              1280.8347              1306.6280
 Red. masses --      1.1870                 1.2270                 2.7033
 Frc consts  --      1.1234                 1.1860                 2.7192
 IR Inten    --     11.1173                32.9459                23.8570

                     55                     56                     57
                      A                      A                      A
 Frequencies --   1331.5279              1350.7634              1383.1385
 Red. masses --      2.8551                 5.6124                 1.9417
 Frc consts  --      2.9825                 6.0333                 2.1886
 IR Inten    --    108.4515                 7.0628                27.8798

                     58                     59                     60
                      A                      A                      A
 Frequencies --   1392.0586              1400.1458              1464.8711
 Red. masses --      1.8743                 5.9252                 2.7850
 Frc consts  --      2.1399                 6.8439                 3.5211
 IR Inten    --     44.6054               182.9437                22.9885

                     61                     62                     63
                      A                      A                      A
 Frequencies --   1489.7463              1529.8927              1572.6224
 Red. masses --      1.7291                 3.1151                 3.0773
 Frc consts  --      2.2610                 4.2959                 4.4841
 IR Inten    --     64.3599                19.7556               307.2362

                     64                     65                     66
                      A                      A                      A
 Frequencies --   1618.8530              1653.3518              1690.5698
 Red. masses --      1.1121                 6.7199                 6.9482
 Frc consts  --      1.7171                10.8229                11.7000
 IR Inten    --     51.1255                29.3024               498.8661

                     67                     68                     69
                      A                      A                      A
 Frequencies --   1837.8803              3088.8648              3167.7054
 Red. masses --      9.9653                 1.0871                 1.0877
 Frc consts  --     19.8324                 6.1111                 6.4308
 IR Inten    --    456.1523                26.9121                 3.4279

                     70                     71                     72
                      A                      A                      A
 Frequencies --   3233.2799              3247.5858              3542.4603
 Red. masses --      1.0923                 1.0915                 1.0465
 Frc consts  --      6.7277                 6.7823                 7.7374
 IR Inten    --      1.2597                16.5112                35.5851

                     73                     74                     75
                      A                      A                      A
 Frequencies --   3623.4688              3650.0493              3661.7661
 Red. masses --      1.0770                 1.0776                 1.1003
 Frc consts  --      8.3313                 8.4585                 8.6927
 IR Inten    --     71.5299                47.1827                48.4580

 - Thermochemistry -
 -------------------
 Temperature   298.150 Kelvin.  Pressure   1.00000 Atm.
 Atom     1 has atomic number  6 and mass  12.00000

 Molecular mass:   342.93520 amu.
 Principal axes and moments of inertia in atomic units:
                           1         2         3
     Eigenvalues --  3121.75350********************
           X            0.99992  -0.00566  -0.01093
           Y            0.00578   0.99992   0.01116
           Z            0.01086  -0.01122   0.99988
 This molecule is an asymmetric top.
 Rotational symmetry number  1.
 Warning -- assumption of classical behavior for rotation
           may cause significant error
 Rotational temperatures (Kelvin)      0.02775     0.00672     0.00615
 Rotational constants (GHZ):           0.57812     0.13993     0.12815
 Zero-point vibrational energy     477448.6 (Joules/Mol)
                                  114.11295 (Kcal/Mol)
 Warning -- explicit consideration of  29 degrees of freedom as
           vibrations may cause significant error
 Vibrational temperatures:     42.73    57.47    79.01    94.44   115.26
          (Kelvin)            178.99   201.08   250.08   274.92   286.85
                              333.46   348.94   370.51   391.80   416.79
                              443.90   466.20   536.09   556.13   575.02
                              643.10   649.81   698.93   727.24   758.52
                              772.63   787.26   837.69   877.02   923.05
                              928.38   943.32  1008.16  1018.96  1042.21
                             1125.51  1135.50  1172.18  1244.85  1246.50
                             1325.08  1387.26  1394.21  1426.58  1543.51
                             1601.48  1614.05  1654.19  1704.71  1750.38
                             1816.84  1823.50  1842.84  1879.95  1915.77
                             1943.45  1990.03  2002.86  2014.50  2107.62
                             2143.41  2201.17  2262.65  2329.17  2378.80
                             2432.35  2644.30  4444.19  4557.62  4651.97
                             4672.55  5096.81  5213.36  5251.61  5268.46

 Zero-point correction=                           0.181851 (Hartree/Particle)
 Thermal correction to Energy=                    0.199468
 Thermal correction to Enthalpy=                  0.200412
 Thermal correction to Gibbs Free Energy=         0.134727
 Sum of electronic and zero-point Energies=          -2515.858283
 Sum of electronic and thermal Energies=             -2515.840666
 Sum of electronic and thermal Enthalpies=           -2515.839722
 Sum of electronic and thermal Free Energies=        -2515.905407

                     E (Thermal)             CV                S
                      KCal/Mol        Cal/Mol-Kelvin    Cal/Mol-Kelvin
 Total                  125.168             65.723            138.246
 Electronic               0.000              0.000              0.000
 Translational            0.889              2.981             43.391
 Rotational               0.889              2.981             34.693
 Vibrational            123.391             59.761             60.161
 Vibration     1          0.593              1.984              5.850
 Vibration     2          0.594              1.981              5.262
 Vibration     3          0.596              1.976              4.632
 Vibration     4          0.597              1.971              4.280
 Vibration     5          0.600              1.963              3.888
 Vibration     6          0.610              1.929              3.031
 Vibration     7          0.615              1.914              2.807
 Vibration     8          0.627              1.875              2.394
 Vibration     9          0.634              1.852              2.217
 Vibration    10          0.637              1.841              2.139
 Vibration    11          0.653              1.792              1.865
 Vibration    12          0.659              1.775              1.784
 Vibration    13          0.667              1.750              1.679
 Vibration    14          0.675              1.724              1.581
 Vibration    15          0.686              1.693              1.476
 Vibration    16          0.698              1.657              1.370
 Vibration    17          0.709              1.627              1.290
 Vibration    18          0.744              1.528              1.069
 Vibration    19          0.755              1.499              1.013
 Vibration    20          0.766              1.471              0.964
 Vibration    21          0.806              1.368              0.805
 Vibration    22          0.810              1.357              0.791
 Vibration    23          0.842              1.282              0.695
 Vibration    24          0.861              1.238              0.645
 Vibration    25          0.882              1.190              0.593
 Vibration    26          0.892              1.168              0.572
 Vibration    27          0.902              1.146              0.550
 Vibration    28          0.939              1.070              0.481
 Vibration    29          0.969              1.012              0.434

                           ! Non-Optimized Parameters !
 Normal termination of Gaussian 16 at Fri Jul  1 09:35:43 2022.
