 Gaussian 16, Revision C.01,
 Gaussian 16:  ES64L-G16RevC.01  3-Jul-2019

 --------------------------------------------------
 #M062X/gen 6D INT(grid=ultrafine) OPT Freq=noraman
 --------------------------------------------------

 ----------
 HA.36.freq
 ----------
 Symbolic Z-matrix:
 Charge =  0 Multiplicity = 1

 SCF Done:  E(RM062X) =  -1808.43372376     A.U. after   17 cycles
 SCF Done:  E(RM062X) =  -1808.43609515     A.U. after   15 cycles
 SCF Done:  E(RM062X) =  -1808.43633964     A.U. after   15 cycles
 SCF Done:  E(RM062X) =  -1808.43661161     A.U. after   15 cycles
 SCF Done:  E(RM062X) =  -1808.43671690     A.U. after   14 cycles
 SCF Done:  E(RM062X) =  -1808.43678269     A.U. after   14 cycles
 SCF Done:  E(RM062X) =  -1808.43679995     A.U. after   14 cycles
 SCF Done:  E(RM062X) =  -1808.43680599     A.U. after   13 cycles
 SCF Done:  E(RM062X) =  -1808.43680902     A.U. after   12 cycles
 SCF Done:  E(RM062X) =  -1808.43680949     A.U. after   12 cycles
 SCF Done:  E(RM062X) =  -1808.43681122     A.U. after   12 cycles
 SCF Done:  E(RM062X) =  -1808.43681208     A.U. after   12 cycles
 SCF Done:  E(RM062X) =  -1808.43681357     A.U. after   14 cycles
 SCF Done:  E(RM062X) =  -1808.43681629     A.U. after   13 cycles
 SCF Done:  E(RM062X) =  -1808.43681994     A.U. after   14 cycles
 SCF Done:  E(RM062X) =  -1808.43681900     A.U. after   13 cycles
 SCF Done:  E(RM062X) =  -1808.43681940     A.U. after   12 cycles
 SCF Done:  E(RM062X) =  -1808.43681992     A.U. after   12 cycles
 SCF Done:  E(RM062X) =  -1808.43681941     A.U. after   12 cycles
 Optimization completed.
    -- Stationary point found.
 Normal termination of Gaussian 16 at Sat Jul  2 11:59:49 2022.

 ------------------------------------------------------------------
 #N Geom=AllCheck Guess=TCheck SCRF=Check GenChk RM062X/ChkBas Freq
 ------------------------------------------------------------------

 Structure from the checkpoint file:  "/jobfs/50064223.gadi-pbs/Gau-3614417.chk"
 ----------
 HA.36.freq
 ----------
 Charge =  0 Multiplicity = 1

                         Standard orientation:
 ---------------------------------------------------------------------
 Center     Atomic      Atomic             Coordinates (Angstroms)
 Number     Number       Type             X           Y           Z
 ---------------------------------------------------------------------
      1          6           0       -1.851233    0.010558   -0.055031
      2          6           0       -2.376617   -1.284299   -0.070216
      3         17           0       -4.033491   -1.613240    0.345215
      4          6           0       -1.569443   -2.354447   -0.440084
      5          1           0       -1.986514   -3.356146   -0.448534
      6          6           0       -0.240360   -2.133055   -0.790377
      7          6           0        0.291728   -0.843069   -0.787245
      8          6           0       -0.522476    0.225697   -0.411389
      9         16           0       -2.803270    1.450078    0.462224
     10          8           0       -3.357837    1.163549    1.768159
     11          8           0       -1.952486    2.596889    0.205796
     12          7           0       -4.084935    1.599249   -0.575114
     13          1           0       -4.755660    0.838386   -0.506788
     14          1           0       -3.806342    1.816575   -1.527949
     15          1           0       -0.134574    1.240374   -0.384603
     16          6           0        1.767138   -0.622225   -1.118123
     17          7           0        2.011190    0.683480   -1.692972
     18          6           0        2.638343   -0.561596    0.131058
     19          6           0        2.928883    1.462577   -1.012194
     20          6           0        3.316610    0.647499    0.176573
     21          8           0        3.301678    2.569465   -1.330496
     22          6           0        2.818633   -1.523907    1.111482
     23          6           0        3.703479   -1.228238    2.151405
     24          6           0        4.383254   -0.005579    2.199668
     25          6           0        4.197750    0.953428    1.203836
     26          8           0        2.263311   -1.680674   -1.913228
     27          1           0        0.390113   -2.971872   -1.068782
     28          1           0        1.542889    1.032074   -2.519590
     29          1           0        2.293438   -2.474342    1.075968
     30          1           0        3.865932   -1.958810    2.938212
     31          1           0        5.061064    0.195523    3.023535
     32          1           0        4.715660    1.907649    1.218930
     33          1           0        1.800406   -1.678587   -2.766069
 ---------------------------------------------------------------------

 SCF Done:  E(RM062X) =  -1808.43681941     A.U. after    2 cycles

 The electronic state is 1-A.
 Alpha  occ. eigenvalues -- -102.70589 -90.18208 -19.68500 -19.65597 -19.65417
 Alpha  occ. eigenvalues --  -19.63351 -14.81354 -14.80517 -10.68718 -10.67426
 Alpha  occ. eigenvalues --  -10.66129 -10.62343 -10.60510 -10.60340 -10.60225
 Alpha  occ. eigenvalues --  -10.60071 -10.58721 -10.58084 -10.57984 -10.57891
 Alpha  occ. eigenvalues --  -10.57747 -10.57628  -9.85231  -8.49094  -7.57639
 Alpha  occ. eigenvalues --   -7.56975  -7.56937  -6.41312  -6.41259  -6.41196
 Alpha  occ. eigenvalues --   -1.26078  -1.20333  -1.17762  -1.14599  -1.06939
 Alpha  occ. eigenvalues --   -1.04366  -1.03368  -0.98513  -0.97910  -0.90602
 Alpha  occ. eigenvalues --   -0.89314  -0.88142  -0.86860  -0.80081  -0.78114
 Alpha  occ. eigenvalues --   -0.75328  -0.73196  -0.71521  -0.69375  -0.67961
 Alpha  occ. eigenvalues --   -0.65729  -0.64026  -0.63343  -0.61202  -0.59669
 Alpha  occ. eigenvalues --   -0.58565  -0.58321  -0.57712  -0.57569  -0.54730
 Alpha  occ. eigenvalues --   -0.53645  -0.53516  -0.52787  -0.52155  -0.51668
 Alpha  occ. eigenvalues --   -0.50848  -0.50352  -0.48919  -0.46732  -0.46460
 Alpha  occ. eigenvalues --   -0.45454  -0.44479  -0.43714  -0.43407  -0.42230
 Alpha  occ. eigenvalues --   -0.41682  -0.41370  -0.40698  -0.40457  -0.39345
 Alpha  occ. eigenvalues --   -0.38033  -0.35174  -0.34804  -0.34753  -0.33850
 Alpha  occ. eigenvalues --   -0.32829  -0.31902
 Alpha virt. eigenvalues --   -0.04042  -0.03258  -0.01891  -0.01295   0.00023
 Alpha virt. eigenvalues --    0.00357   0.00687   0.01744   0.02084   0.03081
 Alpha virt. eigenvalues --    0.03527   0.03826   0.04175   0.04697   0.05224

 Mulliken charges:
               1
     1  C   -2.297626
     2  C    1.324361
     3  Cl   0.246859
     4  C   -0.335905
     5  H    0.242604
     6  C   -0.057008
     7  C   -0.820565
     8  C   -0.168562
     9  S    1.450643
    10  O   -0.398015
    11  O   -0.560117
    12  N   -0.931863
    13  H    0.444949
    14  H    0.445007
    15  H    0.307732
    16  C    1.467310
    17  N   -0.638587
    18  C   -0.233956
    19  C    0.409935
    20  C   -0.341244
    21  O   -0.479165
    22  C   -0.041444
    23  C   -0.181223
    24  C    0.022995
    25  C   -0.474668
    26  O   -0.559134
    27  H    0.257422
    28  H    0.464358
    29  H    0.231344
    30  H    0.216820
    31  H    0.217573
    32  H    0.248423
    33  H    0.520745
 Sum of Mulliken charges =  -0.00000

 Dipole moment (field-independent basis, Debye):
    X=             -0.9050    Y=             -6.3976    Z=             -3.2970  Tot=              7.2539
 Quadrupole moment (field-independent basis, Debye-Ang):
   XX=           -143.8986   YY=           -151.5652   ZZ=           -132.4419
   XY=             -0.0977   XZ=             25.8756   YZ=             -1.3917

  Exact polarizability:     250.459      17.607     213.608      12.076      -7.732     172.952
 Approx polarizability:     278.400      29.392     293.945       5.074     -12.439     229.459

                      1                      2                      3
                      A                      A                      A
 Frequencies --     13.8733                30.6179                38.1193
 Red. masses --      8.0228                 9.1277                 6.9409
 Frc consts  --      0.0009                 0.0050                 0.0059
 IR Inten    --      1.0102                 0.3424                 1.3620

                      4                      5                      6
                      A                      A                      A
 Frequencies --     68.6475               100.8826               121.4601
 Red. masses --      6.9534                 4.7746                 8.2936
 Frc consts  --      0.0193                 0.0286                 0.0721
 IR Inten    --      2.7821                 3.1510                 3.3887

                      7                      8                      9
                      A                      A                      A
 Frequencies --    129.9202               137.8130               179.8225
 Red. masses --      4.8571                 6.7222                10.7183
 Frc consts  --      0.0483                 0.0752                 0.2042
 IR Inten    --      0.4267                 2.4605                 0.7322

                     10                     11                     12
                      A                      A                      A
 Frequencies --    190.5757               240.1400               250.3155
 Red. masses --      6.1728                 3.5930                 4.0202
 Frc consts  --      0.1321                 0.1221                 0.1484
 IR Inten    --     10.1660                 3.1074                 8.2132

                     13                     14                     15
                      A                      A                      A
 Frequencies --    261.2833               262.5968               278.8820
 Red. masses --      5.0189                 1.5446                 6.5577
 Frc consts  --      0.2019                 0.0628                 0.3005
 IR Inten    --      5.6078                52.5024                 9.3578

                     16                     17                     18
                      A                      A                      A
 Frequencies --    289.6011               321.1395               335.4927
 Red. masses --      2.1691                 3.2992                 5.0236
 Frc consts  --      0.1072                 0.2005                 0.3331
 IR Inten    --      8.9441                 0.4537                12.5367

                     19                     20                     21
                      A                      A                      A
 Frequencies --    356.8851               386.8812               428.2623
 Red. masses --      5.5787                 6.6384                 2.6322
 Frc consts  --      0.4186                 0.5854                 0.2844
 IR Inten    --      6.3059                 0.8429                36.9746

                     22                     23                     24
                      A                      A                      A
 Frequencies --    436.7535               449.3915               455.9282
 Red. masses --      3.6814                 2.0484                 1.7651
 Frc consts  --      0.4137                 0.2437                 0.2162
 IR Inten    --     30.4944                39.8479               149.8527

                     25                     26                     27
                      A                      A                      A
 Frequencies --    472.4018               490.2209               503.4065
 Red. masses --      4.4062                 4.9508                 6.0000
 Frc consts  --      0.5794                 0.7010                 0.8959
 IR Inten    --     15.9556                 0.4856                34.9059

                     28                     29                     30
                      A                      A                      A
 Frequencies --    543.6187               557.0778               566.0777
 Red. masses --      7.2239                 4.4233                 5.7477
 Frc consts  --      1.2578                 0.8088                 1.0852
 IR Inten    --     10.0201                13.1089                11.3459

                     31                     32                     33
                      A                      A                      A
 Frequencies --    570.0363               607.7996               628.3210
 Red. masses --      4.1270                 6.3892                 5.1320
 Frc consts  --      0.7901                 1.3906                 1.1937
 IR Inten    --     34.1640                 6.8668                23.9166

                     34                     35                     36
                      A                      A                      A
 Frequencies --    646.0159               675.3174               698.0499
 Red. masses --      2.6702                 5.1622                 5.8220
 Frc consts  --      0.6566                 1.3871                 1.6715
 IR Inten    --    382.3515                13.3203                65.9091

                     37                     38                     39
                      A                      A                      A
 Frequencies --    705.1608               737.8899               751.3349
 Red. masses --      4.1555                 4.3794                 4.5800
 Frc consts  --      1.2174                 1.4049                 1.5233
 IR Inten    --     54.8766                 4.9162                21.7764

                     40                     41                     42
                      A                      A                      A
 Frequencies --    784.5398               801.1944               811.9769
 Red. masses --      2.4511                 2.7742                 3.7794
 Frc consts  --      0.8889                 1.0492                 1.4681
 IR Inten    --     15.7909                41.2356                 0.2936

                     43                     44                     45
                      A                      A                      A
 Frequencies --    820.4482               872.3903               876.2827
 Red. masses --      4.5566                 1.6977                 2.8291
 Frc consts  --      1.8071                 0.7612                 1.2799
 IR Inten    --     16.1366                 5.9321                77.6392

                     46                     47                     48
                      A                      A                      A
 Frequencies --    912.3453               964.0212               982.5526
 Red. masses --      1.4113                 1.8556                 2.4959
 Frc consts  --      0.6921                 1.0160                 1.4197
 IR Inten    --      0.6333                21.9240                11.8157

                     49                     50                     51
                      A                      A                      A
 Frequencies --    990.9897              1014.0037              1027.4318
 Red. masses --      1.4439                 1.3336                 1.3166
 Frc consts  --      0.8355                 0.8079                 0.8189
 IR Inten    --      2.1688                 0.0984                 0.0247

                     52                     53                     54
                      A                      A                      A
 Frequencies --   1051.4764              1053.2016              1086.9267
 Red. masses --      2.1239                 5.3736                 3.3686
 Frc consts  --      1.3835                 3.5119                 2.3448
 IR Inten    --      3.8479                90.3392                46.1043

                     55                     56                     57
                      A                      A                      A
 Frequencies --   1108.0386              1110.2306              1138.6421
 Red. masses --      2.4766                 1.2548                 4.3639
 Frc consts  --      1.7915                 0.9113                 3.3335
 IR Inten    --     19.6997                 1.9877               123.7444

                     58                     59                     60
                      A                      A                      A
 Frequencies --   1156.5458              1169.5920              1179.8224
 Red. masses --      2.4195                 1.7643                 1.3985
 Frc consts  --      1.9068                 1.4220                 1.1470
 IR Inten    --     17.7353                11.2180                 2.0770

                     61                     62                     63
                      A                      A                      A
 Frequencies --   1181.8490              1187.9265              1220.1232
 Red. masses --      1.2309                 5.4443                 2.5074
 Frc consts  --      1.0130                 4.5266                 2.1993
 IR Inten    --     13.4445               199.6768                36.6066

                     64                     65                     66
                      A                      A                      A
 Frequencies --   1256.4101              1270.9475              1297.9077
 Red. masses --      2.4709                 2.1820                 1.5666
 Frc consts  --      2.2981                 2.0766                 1.5549
 IR Inten    --     91.9032                57.5954                 9.1257

                     67                     68                     69
                      A                      A                      A
 Frequencies --   1324.8718              1332.4840              1345.7019
 Red. masses --      2.7673                 4.2930                 2.3828
 Frc consts  --      2.8619                 4.4909                 2.5423
 IR Inten    --     42.7395                37.3982                47.7936

                     70                     71                     72
                      A                      A                      A
 Frequencies --   1388.4557              1402.7199              1439.0492
 Red. masses --      4.0974                11.6506                 3.8678
 Frc consts  --      4.6540                13.5065                 4.7191
 IR Inten    --     29.6801               158.3973                51.4918

                     73                     74                     75
                      A                      A                      A
 Frequencies --   1451.7800              1519.3476              1522.7821
 Red. masses --      2.1184                 2.7806                 2.7873
 Frc consts  --      2.6306                 3.7818                 3.8081
 IR Inten    --    134.8415                73.4928                 7.3078

                     76                     77                     78
                      A                      A                      A
 Frequencies --   1529.7283              1615.9545              1648.4046
 Red. masses --      2.9280                 1.1143                 8.0041
 Frc consts  --      4.0369                 1.7144                12.8142
 IR Inten    --      2.7187                55.3295                 5.8796

                     79                     80                     81
                      A                      A                      A
 Frequencies --   1675.2196              1689.3527              1700.4942
 Red. masses --      6.5024                 7.6192                 7.3837
 Frc consts  --     10.7515                12.8115                12.5798
 IR Inten    --      9.5479                 0.6083                15.0475

                     82                     83                     84
                      A                      A                      A
 Frequencies --   1872.1236              3221.9651              3231.2326
 Red. masses --     11.2112                 1.0872                 1.0907
 Frc consts  --     23.1511                 6.6495                 6.7095
 IR Inten    --    623.2546                 0.6020                 5.0719

                     85                     86                     87
                      A                      A                      A
 Frequencies --   3238.0858              3240.2306              3242.1969
 Red. masses --      1.0891                 1.0943                 1.0906
 Frc consts  --      6.7279                 6.7695                 6.7544
 IR Inten    --      0.0573                 6.3217                 6.5170

                     88                     89                     90
                      A                      A                      A
 Frequencies --   3248.3863              3250.3291              3548.1617
 Red. masses --      1.0974                 1.0956                 1.0462
 Frc consts  --      6.8227                 6.8197                 7.7604
 IR Inten    --      9.1733                 0.4843                42.0660

                     91                     92                     93
                      A                      A                      A
 Frequencies --   3655.3828              3668.7930              3786.7528
 Red. masses --      1.0792                 1.1007                 1.0663
 Frc consts  --      8.4959                 8.7292                 9.0090
 IR Inten    --     52.0530                52.5341                38.5548

 - Thermochemistry -
 -------------------
 Temperature   298.150 Kelvin.  Pressure   1.00000 Atm.
 Atom     1 has atomic number  6 and mass  12.00000

 Molecular mass:   338.01281 amu.
 Principal axes and moments of inertia in atomic units:
                           1         2         3
     Eigenvalues --  4267.29357********************
           X            0.99987  -0.00767   0.01431
           Y            0.00775   0.99995  -0.00603
           Z           -0.01426   0.00614   0.99988
 This molecule is an asymmetric top.
 Rotational symmetry number  1.
 Warning -- assumption of classical behavior for rotation
           may cause significant error
 Rotational temperatures (Kelvin)      0.02030     0.00724     0.00656
 Rotational constants (GHZ):           0.42292     0.15086     0.13675
 Zero-point vibrational energy     628253.7 (Joules/Mol)
                                  150.15624 (Kcal/Mol)
 Warning -- explicit consideration of  32 degrees of freedom as
           vibrations may cause significant error
 Vibrational temperatures:     19.96    44.05    54.85    98.77   145.15
          (Kelvin)            174.75   186.93   198.28   258.72   274.20
                              345.51   360.15   375.93   377.82   401.25
                              416.67   462.05   482.70   513.48   556.64
                              616.17   628.39   646.57   655.98   679.68
                              705.32   724.29   782.15   801.51   814.46
                              820.16   874.49   904.01   929.47   971.63
                             1004.34  1014.57  1061.66  1081.00  1128.78
                             1152.74  1168.25  1180.44  1255.18  1260.78
                             1312.66  1387.01  1413.67  1425.81  1458.93
                             1478.25  1512.84  1515.32  1563.85  1594.22
                             1597.37  1638.25  1664.01  1682.78  1697.50
                             1700.42  1709.16  1755.49  1807.69  1828.61
                             1867.40  1906.20  1917.15  1936.16  1997.68
                             2018.20  2070.47  2088.79  2186.00  2190.94
                             2200.94  2325.00  2371.69  2410.27  2430.60
                             2446.63  2693.57  4635.69  4649.02  4658.88
                             4661.97  4664.80  4673.70  4676.50  5105.01
                             5259.28  5278.57  5448.29

 Zero-point correction=                           0.239289 (Hartree/Particle)
 Thermal correction to Energy=                    0.258305
 Thermal correction to Enthalpy=                  0.259249
 Thermal correction to Gibbs Free Energy=         0.190311
 Sum of electronic and zero-point Energies=          -1808.197530
 Sum of electronic and thermal Energies=             -1808.178514
 Sum of electronic and thermal Enthalpies=           -1808.177570
 Sum of electronic and thermal Free Energies=        -1808.246508

                     E (Thermal)             CV                S
                      KCal/Mol        Cal/Mol-Kelvin    Cal/Mol-Kelvin
 Total                  162.089             73.593            145.093
 Electronic               0.000              0.000              0.000
 Translational            0.889              2.981             43.348
 Rotational               0.889              2.981             34.865
 Vibrational            160.312             67.631             66.880
 Vibration     1          0.593              1.986              7.361
 Vibration     2          0.594              1.984              5.789
 Vibration     3          0.594              1.982              5.355
 Vibration     4          0.598              1.969              4.192
 Vibration     5          0.604              1.948              3.437
 Vibration     6          0.609              1.931              3.077
 Vibration     7          0.612              1.923              2.947
 Vibration     8          0.614              1.916              2.834
 Vibration     9          0.629              1.867              2.330
 Vibration    10          0.634              1.853              2.222
 Vibration    11          0.657              1.779              1.802
 Vibration    12          0.663              1.762              1.728
 Vibration    13          0.669              1.744              1.653
 Vibration    14          0.670              1.741              1.644
 Vibration    15          0.679              1.713              1.541
 Vibration    16          0.686              1.693              1.476
 Vibration    17          0.707              1.633              1.304
 Vibration    18          0.717              1.605              1.234
 Vibration    19          0.732              1.561              1.136
 Vibration    20          0.755              1.498              1.012
 Vibration    21          0.790              1.409              0.864
 Vibration    22          0.797              1.390              0.837
 Vibration    23          0.808              1.362              0.798
 Vibration    24          0.814              1.348              0.778
 Vibration    25          0.829              1.311              0.731
 Vibration    26          0.846              1.272              0.683
 Vibration    27          0.859              1.242              0.650
 Vibration    28          0.899              1.154              0.558
 Vibration    29          0.913              1.124              0.530
 Vibration    30          0.922              1.105              0.512
 Vibration    31          0.926              1.096              0.504
 Vibration    32          0.967              1.015              0.436

 Optimization completed.
    -- Stationary point found.
 Normal termination of Gaussian 16 at Sat Jul  2 12:23:01 2022.
