 Gaussian 16, Revision C.01,
 Gaussian 16:  ES64L-G16RevC.01  3-Jul-2019

 --------------------------------------------------
 #M062X/gen 6D INT(grid=ultrafine) OPT Freq=noraman
 --------------------------------------------------

 ----------
 HA.33.freq
 ----------
 Symbolic Z-matrix:
 Charge =  0 Multiplicity = 1

 SCF Done:  E(RM062X) =  -1705.25414874     A.U. after   17 cycles
 SCF Done:  E(RM062X) =  -1705.25644150     A.U. after   16 cycles
 SCF Done:  E(RM062X) =  -1705.25559173     A.U. after   15 cycles
 SCF Done:  E(RM062X) =  -1705.25714318     A.U. after   14 cycles
 SCF Done:  E(RM062X) =  -1705.25718825     A.U. after   15 cycles
 SCF Done:  E(RM062X) =  -1705.25731603     A.U. after   14 cycles
 SCF Done:  E(RM062X) =  -1705.25733092     A.U. after   13 cycles
 SCF Done:  E(RM062X) =  -1705.25734313     A.U. after   13 cycles
 SCF Done:  E(RM062X) =  -1705.25734739     A.U. after   12 cycles
 SCF Done:  E(RM062X) =  -1705.25734855     A.U. after   11 cycles
 SCF Done:  E(RM062X) =  -1705.25734900     A.U. after   12 cycles
 SCF Done:  E(RM062X) =  -1705.25734913     A.U. after   11 cycles
 SCF Done:  E(RM062X) =  -1705.25734916     A.U. after   11 cycles
 Optimization completed.
    -- Stationary point found.
 Normal termination of Gaussian 16 at Fri Jul  1 14:20:30 2022.

 ------------------------------------------------------------------
 #N Geom=AllCheck Guess=TCheck SCRF=Check GenChk RM062X/ChkBas Freq
 ------------------------------------------------------------------

 Structure from the checkpoint file:  "/jobfs/49913700.gadi-pbs/Gau-607614.chk"
 ----------
 HA.33.freq
 ----------
 Charge =  0 Multiplicity = 1

                         Standard orientation:
 ---------------------------------------------------------------------
 Center     Atomic      Atomic             Coordinates (Angstroms)
 Number     Number       Type             X           Y           Z
 ---------------------------------------------------------------------
      1          6           0       -2.369356    0.335210    0.004352
      2          6           0       -1.670830   -0.879917   -0.157089
      3          6           0       -2.347897   -2.237955   -0.195328
      4          6           0       -0.293440   -0.873371   -0.305537
      5          1           0        0.238753   -1.810429   -0.431210
      6          6           0        0.426841    0.333179   -0.287257
      7          6           0       -0.273913    1.536681   -0.119887
      8          6           0        0.455854    2.836336   -0.183474
      9          6           0       -1.658320    1.528371    0.015868
     10         16           0       -4.157957    0.481216    0.149687
     11          8           0       -4.449823    1.897945    0.034998
     12          8           0       -4.751777   -0.512912   -0.719314
     13          7           0       -4.585384    0.074530    1.700737
     14          1           0       -4.233039    0.734994    2.388134
     15          1           0       -4.386275   -0.894822    1.929846
     16          7           0        1.791815    0.362206   -0.472087
     17          6           0        2.514763    1.491446    0.090118
     18          7           0        1.818165    2.702869   -0.305061
     19          1           0        2.274093   -0.525109   -0.367118
     20          9           0       -1.458005   -3.225365    0.020497
     21          9           0       -2.928311   -2.491287   -1.365523
     22          9           0       -3.279112   -2.363039    0.772955
     23          1           0        2.330619    3.577398   -0.262752
     24          6           0        3.951516    1.517352   -0.435301
     25          6           0        4.687260    0.241708   -0.103815
     26          6           0        5.183976    0.021017    1.185602
     27          1           0        5.083845    0.799486    1.939587
     28          6           0        5.813795   -1.178564    1.509023
     29          1           0        6.198655   -1.333188    2.512663
     30          6           0        5.955011   -2.176365    0.544434
     31          1           0        6.448709   -3.110368    0.794981
     32          6           0        5.466167   -1.966512   -0.743375
     33          1           0        5.578703   -2.735601   -1.501827
     34          6           0        4.835484   -0.764186   -1.064022
     35          1           0        4.459621   -0.599454   -2.071608
     36          1           0        2.534893    1.406385    1.193437
     37          1           0        4.462530    2.377443    0.014615
     38          1           0        3.908994    1.673424   -1.518194
     39          8           0       -0.102865    3.917136   -0.185845
     40          1           0       -2.181858    2.476455    0.103383
 ---------------------------------------------------------------------

 SCF Done:  E(RM062X) =  -1705.25734916     A.U. after    2 cycles

 The electronic state is 1-A.
 Alpha  occ. eigenvalues --  -90.17228 -25.31875 -25.31596 -25.30823 -19.64546
 Alpha  occ. eigenvalues --  -19.64460 -19.63667 -14.81888 -14.81258 -14.80256
 Alpha  occ. eigenvalues --  -10.83191 -10.68189 -10.66573 -10.64556 -10.62582
 Alpha  occ. eigenvalues --  -10.61231 -10.60005 -10.59732 -10.59497 -10.59423
 Alpha  occ. eigenvalues --  -10.59195 -10.58478 -10.58419 -10.58370 -10.58335
 Alpha  occ. eigenvalues --  -10.58175  -8.48106  -6.40319  -6.40275  -6.40209
 Alpha  occ. eigenvalues --   -1.48319  -1.39092  -1.38651  -1.25093  -1.18848
 Alpha  occ. eigenvalues --   -1.13668  -1.12169  -1.04299  -1.02845  -1.00701
 Alpha  occ. eigenvalues --   -0.99494  -0.93460  -0.91544  -0.88806  -0.87296
 Alpha  occ. eigenvalues --   -0.84318  -0.83929  -0.77915  -0.77047  -0.75496
 Alpha  occ. eigenvalues --   -0.72819  -0.72058  -0.70731  -0.70528  -0.70190
 Alpha  occ. eigenvalues --   -0.69148  -0.67810  -0.64176  -0.63470  -0.62338
 Alpha  occ. eigenvalues --   -0.62199  -0.61385  -0.59478  -0.59021  -0.58382
 Alpha  occ. eigenvalues --   -0.57487  -0.55846  -0.55796  -0.55446  -0.55401
 Alpha  occ. eigenvalues --   -0.54647  -0.54342  -0.53323  -0.52883  -0.52380
 Alpha  occ. eigenvalues --   -0.51841  -0.51694  -0.51318  -0.50594  -0.50154
 Alpha  occ. eigenvalues --   -0.48778  -0.48097  -0.47360  -0.45852  -0.45015
 Alpha  occ. eigenvalues --   -0.43034  -0.42855  -0.42317  -0.41990  -0.40381
 Alpha  occ. eigenvalues --   -0.38590  -0.38535  -0.37791  -0.35774  -0.35334
 Alpha  occ. eigenvalues --   -0.34614  -0.33627  -0.32993  -0.29869
 Alpha virt. eigenvalues --   -0.05039  -0.02029  -0.01434  -0.01019  -0.00877
 Alpha virt. eigenvalues --    0.00379   0.00530   0.01031   0.01658   0.02502
 Alpha virt. eigenvalues --    0.02764   0.03095   0.03226   0.04306   0.04574

 Mulliken charges:
               1
     1  C   -1.732441
     2  C    0.192271
     3  C    1.664072
     4  C   -1.398402
     5  H    0.244008
     6  C   -0.244651
     7  C    1.357916
     8  C    1.260465
     9  C   -0.747906
    10  S    1.590354
    11  O   -0.540696
    12  O   -0.486320
    13  N   -1.000724
    14  H    0.444611
    15  H    0.463719
    16  N   -0.428116
    17  C   -0.581124
    18  N   -0.554991
    19  H    0.436987
    20  F   -0.325268
    21  F   -0.209138
    22  F   -0.328508
    23  H    0.455525
    24  C   -0.407134
    25  C   -0.073658
    26  C    0.069788
    27  H    0.207729
    28  C   -0.216880
    29  H    0.216067
    30  C   -0.135773
    31  H    0.215465
    32  C   -0.275146
    33  H    0.217334
    34  C   -0.122044
    35  H    0.220513
    36  H    0.230978
    37  H    0.239156
    38  H    0.260114
    39  O   -0.492786
    40  H    0.314635
 Sum of Mulliken charges =  -0.00000

 Dipole moment (field-independent basis, Debye):
    X=             10.6229    Y=             -2.7000    Z=              3.9478  Tot=             11.6499
 Quadrupole moment (field-independent basis, Debye-Ang):
   XX=           -170.0321   YY=           -169.6591   ZZ=           -148.7494
   XY=              4.9304   XZ=            -10.5093   YZ=              2.3679

  Exact polarizability:     292.931     -17.058     241.575       1.103       3.986     172.728
 Approx polarizability:     303.174     -21.199     319.368       3.065      11.552     242.692

                      1                      2                      3
                      A                      A                      A
 Frequencies --     21.4230                30.8861                44.6765
 Red. masses --      8.1736                 5.1654                 4.5506
 Frc consts  --      0.0022                 0.0029                 0.0054
 IR Inten    --      0.7809                 0.1388                 0.0306

                      4                      5                      6
                      A                      A                      A
 Frequencies --     56.3403                61.5298                84.4999
 Red. masses --      6.1660                 8.4669                 6.8698
 Frc consts  --      0.0115                 0.0189                 0.0289
 IR Inten    --      1.2874                 1.6996                 1.3098

                      7                      8                      9
                      A                      A                      A
 Frequencies --     98.7221               115.1935               132.2844
 Red. masses --      8.8123                 8.0145                 6.1456
 Frc consts  --      0.0506                 0.0627                 0.0634
 IR Inten    --      2.4680                 0.1195                 4.1704

                     10                     11                     12
                      A                      A                      A
 Frequencies --    144.9842               162.2911               183.3178
 Red. masses --      6.4688                11.4632                 6.9315
 Frc consts  --      0.0801                 0.1779                 0.1372
 IR Inten    --      0.8529                 0.0851                 2.4508

                     13                     14                     15
                      A                      A                      A
 Frequencies --    189.9673               218.9533               236.2792
 Red. masses --      6.8029                 7.2535                 6.0823
 Frc consts  --      0.1446                 0.2049                 0.2001
 IR Inten    --      4.8473                 1.9176                14.6513

                     16                     17                     18
                      A                      A                      A
 Frequencies --    254.8068               261.7101               286.6765
 Red. masses --      8.2610                 5.0178                 2.8986
 Frc consts  --      0.3160                 0.2025                 0.1404
 IR Inten    --      0.3649                 6.0141                 7.2533

                     19                     20                     21
                      A                      A                      A
 Frequencies --    310.7084               323.6517               349.1633
 Red. masses --      4.4797                 6.5632                 3.3261
 Frc consts  --      0.2548                 0.4051                 0.2389
 IR Inten    --      8.3790                 8.5563                 3.2806

                     22                     23                     24
                      A                      A                      A
 Frequencies --    359.6165               395.2885               416.3812
 Red. masses --      2.3457                 5.3023                 2.9005
 Frc consts  --      0.1787                 0.4881                 0.2963
 IR Inten    --      1.1217                 4.7507                 0.2150

                     25                     26                     27
                      A                      A                      A
 Frequencies --    434.1186               453.6452               462.7449
 Red. masses --      3.4746                 2.8570                 3.4616
 Frc consts  --      0.3858                 0.3464                 0.4367
 IR Inten    --      5.6783                20.5081                 7.5571

                     28                     29                     30
                      A                      A                      A
 Frequencies --    466.7405               494.6714               514.1218
 Red. masses --      3.0177                 5.2086                10.4504
 Frc consts  --      0.3873                 0.7509                 1.6275
 IR Inten    --      0.7622                 4.7932                10.1467

                     31                     32                     33
                      A                      A                      A
 Frequencies --    524.9585               534.1682               546.5816
 Red. masses --      4.1825                 5.2280                 1.5620
 Frc consts  --      0.6791                 0.8789                 0.2749
 IR Inten    --      2.6179                11.1492               103.9343

                     34                     35                     36
                      A                      A                      A
 Frequencies --    564.8855               571.6401               579.9642
 Red. masses --      3.9015                 3.6045                 6.5298
 Frc consts  --      0.7335                 0.6940                 1.2941
 IR Inten    --    120.6613                91.6283                 5.9917

                     37                     38                     39
                      A                      A                      A
 Frequencies --    592.9567               601.1557               631.0086
 Red. masses --      3.9269                 2.8905                 6.1898
 Frc consts  --      0.8135                 0.6154                 1.4521
 IR Inten    --     96.5914                 9.5808                 1.0558

                     40                     41                     42
                      A                      A                      A
 Frequencies --    648.5174               657.9809               678.8391
 Red. masses --      2.9258                 4.4197                 6.0425
 Frc consts  --      0.7250                 1.1274                 1.6406
 IR Inten    --    180.7423                24.6923                32.5392

                     43                     44                     45
                      A                      A                      A
 Frequencies --    698.9318               719.2703               743.5345
 Red. masses --      3.6975                 2.1780                 4.8099
 Frc consts  --      1.0642                 0.6639                 1.5667
 IR Inten    --    283.7537                44.5089                 1.4585

                     46                     47                     48
                      A                      A                      A
 Frequencies --    754.5582               768.7325               789.1749
 Red. masses --      2.8969                 4.2546                 3.1971
 Frc consts  --      0.9718                 1.4813                 1.1731
 IR Inten    --      5.1573                84.4551                 9.6043

                     49                     50                     51
                      A                      A                      A
 Frequencies --    800.5489               839.3380               852.4900
 Red. masses --      6.5060                 4.7856                 3.7942
 Frc consts  --      2.4566                 1.9864                 1.6246
 IR Inten    --     12.7021                22.9334                 3.0654

                     52                     53                     54
                      A                      A                      A
 Frequencies --    869.2652               881.5111               907.6218
 Red. masses --      3.7731                 1.2567                 1.5340
 Frc consts  --      1.6798                 0.5753                 0.7446
 IR Inten    --     44.8320                 0.2292                26.3492

                     55                     56                     57
                      A                      A                      A
 Frequencies --    923.0061               954.3653               992.5293
 Red. masses --      2.2622                 1.4620                 5.6008
 Frc consts  --      1.1355                 0.7846                 3.2508
 IR Inten    --      0.5611                 9.2043                91.2048

                     58                     59                     60
                      A                      A                      A
 Frequencies --    998.5826              1008.9279              1018.4176
 Red. masses --      1.3575                 1.3689                 5.9697
 Frc consts  --      0.7975                 0.8210                 3.6480
 IR Inten    --      7.9545                 0.0721                 1.3679

                     61                     62                     63
                      A                      A                      A
 Frequencies --   1030.1750              1043.4974              1066.7238
 Red. masses --      1.2961                 2.4099                 2.1774
 Frc consts  --      0.8104                 1.5461                 1.4598
 IR Inten    --      0.0187                 6.5861                 2.4637

                     64                     65                     66
                      A                      A                      A
 Frequencies --   1091.7296              1113.3538              1123.6758
 Red. masses --      2.3103                 1.2740                 1.5689
 Frc consts  --      1.6223                 0.9304                 1.1672
 IR Inten    --     10.8724                 6.3627                 7.2013

                     67                     68                     69
                      A                      A                      A
 Frequencies --   1135.8685              1148.5802              1185.6858
 Red. masses --      2.3156                 6.8148                 4.7137
 Frc consts  --      1.7602                 5.2969                 3.9043
 IR Inten    --     24.1440                10.5985               222.5782

                     70                     71                     72
                      A                      A                      A
 Frequencies --   1186.7715              1209.7323              1212.2185
 Red. masses --      1.2903                 2.3889                 1.1644
 Frc consts  --      1.0707                 2.0598                 1.0081
 IR Inten    --     35.7828                37.9856                10.0386

                     73                     74                     75
                      A                      A                      A
 Frequencies --   1218.3298              1233.1113              1246.4372
 Red. masses --      4.5402                 1.6477                 2.3727
 Frc consts  --      3.9706                 1.4762                 2.1719
 IR Inten    --    224.1193                44.9765                35.7935

                     76                     77                     78
                      A                      A                      A
 Frequencies --   1252.2043              1277.6346              1287.6617
 Red. masses --      8.0488                 2.6660                 1.3204
 Frc consts  --      7.4359                 2.5641                 1.2899
 IR Inten    --    239.5516                68.5755                50.1278

                     79                     80                     81
                      A                      A                      A
 Frequencies --   1328.4172              1338.2191              1351.2867
 Red. masses --      1.5202                 2.8703                 3.6979
 Frc consts  --      1.5806                 3.0285                 3.9784
 IR Inten    --     60.9949                19.7541                 1.4246

                     82                     83                     84
                      A                      A                      A
 Frequencies --   1352.4154              1359.9214              1363.9948
 Red. masses --      2.9302                 5.4052                 1.3295
 Frc consts  --      3.1576                 5.8896                 1.4574
 IR Inten    --     23.1008               230.5813                 5.0241

                     85                     86                     87
                      A                      A                      A
 Frequencies --   1394.4271              1398.4127              1411.0919
 Red. masses --      2.7690                 1.5263                 5.8156
 Frc consts  --      3.1722                 1.7586                 6.8227
 IR Inten    --     72.9146                 9.5507               209.5188

                     88                     89                     90
                      A                      A                      A
 Frequencies --   1459.7418              1487.0096              1501.9658
 Red. masses --      2.4303                 2.0902                 1.4279
 Frc consts  --      3.0512                 2.7231                 1.8979
 IR Inten    --     73.6354                17.0783                 1.9832

                     91                     92                     93
                      A                      A                      A
 Frequencies --   1507.9917              1551.6722              1552.7289
 Red. masses --      1.5715                 2.4292                 3.7034
 Frc consts  --      2.1055                 3.4460                 5.2607
 IR Inten    --      9.8255                25.3862                26.0794

                     94                     95                     96
                      A                      A                      A
 Frequencies --   1559.7723              1617.2848              1654.1809
 Red. masses --      2.8916                 1.1132                 7.2429
 Frc consts  --      4.1449                 1.7155                11.6770
 IR Inten    --    579.2907                50.3779                21.9946

                     97                     98                     99
                      A                      A                      A
 Frequencies --   1670.3109              1691.5892              1700.7088
 Red. masses --      5.9515                 6.0258                 6.9550
 Frc consts  --      9.7829                10.1590                11.8524
 IR Inten    --      1.0677                 5.2460               229.1139

                    100                    101                    102
                      A                      A                      A
 Frequencies --   1832.9906              2967.1063              3083.8310
 Red. masses --      9.9272                 1.0822                 1.0621
 Frc consts  --     19.6515                 5.6132                 5.9511
 IR Inten    --    558.0494                68.0450                16.1980

                    103                    104                    105
                      A                      A                      A
 Frequencies --   3142.5122              3201.8894              3208.9173
 Red. masses --      1.1032                 1.0894                 1.0890
 Frc consts  --      6.4189                 6.5805                 6.6068
 IR Inten    --      8.1204                 7.0468                 4.4019

                    106                    107                    108
                      A                      A                      A
 Frequencies --   3224.7183              3233.3046              3244.4626
 Red. masses --      1.0894                 1.0941                 1.0984
 Frc consts  --      6.6746                 6.7390                 6.8121
 IR Inten    --      1.2776                14.4819                10.9801

                    109                    110                    111
                      A                      A                      A
 Frequencies --   3245.3590              3249.8218              3554.6956
 Red. masses --      1.0912                 1.0913                 1.0465
 Frc consts  --      6.7713                 6.7908                 7.7909
 IR Inten    --      2.0319                14.8283                40.9384

                    112                    113                    114
                      A                      A                      A
 Frequencies --   3590.5105              3617.7503              3675.1634
 Red. masses --      1.0768                 1.0771                 1.1001
 Frc consts  --      8.1788                 8.3056                 8.7544
 IR Inten    --     84.9856                48.4535                59.2905

 - Thermochemistry -
 -------------------
 Temperature   298.150 Kelvin.  Pressure   1.00000 Atm.
 Atom     1 has atomic number  6 and mass  12.00000

 Molecular mass:   385.07080 amu.
 Principal axes and moments of inertia in atomic units:
                           1         2         3
     Eigenvalues --  5416.11041********************
           X            0.99994  -0.01089  -0.00240
           Y            0.01088   0.99994  -0.00064
           Z            0.00240   0.00062   1.00000
 This molecule is an asymmetric top.
 Rotational symmetry number  1.
 Warning -- assumption of classical behavior for rotation
           may cause significant error
 Rotational temperatures (Kelvin)      0.01599     0.00485     0.00397
 Rotational constants (GHZ):           0.33322     0.10096     0.08271
 Zero-point vibrational energy     781211.9 (Joules/Mol)
                                  186.71412 (Kcal/Mol)
 Warning -- explicit consideration of  38 degrees of freedom as
           vibrations may cause significant error
 Vibrational temperatures:     30.82    44.44    64.28    81.06    88.53
          (Kelvin)            121.58   142.04   165.74   190.33   208.60
                              233.50   263.75   273.32   315.02   339.95
                              366.61   376.54   412.46   447.04   465.66
                              502.37   517.41   568.73   599.08   624.60
                              652.69   665.79   671.54   711.72   739.71
                              755.30   768.55   786.41   812.74   822.46
                              834.44   853.13   864.93   907.88   933.07
                              946.69   976.70  1005.61  1034.87  1069.78
                             1085.64  1106.03  1135.45  1151.81  1207.62
                             1226.54  1250.68  1268.30  1305.87  1328.00
                             1373.12  1428.03  1436.74  1451.62  1465.28
                             1482.19  1501.36  1534.78  1570.76  1601.87
                             1616.72  1634.26  1652.55  1705.94  1707.50
                             1740.54  1744.11  1752.90  1774.17  1793.35
                             1801.64  1838.23  1852.66  1911.30  1925.40
                             1944.20  1945.82  1956.62  1962.48  2006.27
                             2012.00  2030.25  2100.24  2139.48  2160.99
                             2169.66  2232.51  2234.03  2244.16  2326.91
                             2380.00  2403.20  2433.82  2446.94  2637.26
                             4269.00  4436.94  4521.37  4606.80  4616.92
                             4639.65  4652.00  4668.06  4669.35  4675.77
                             5114.41  5165.94  5205.14  5287.74

 Zero-point correction=                           0.297548 (Hartree/Particle)
 Thermal correction to Energy=                    0.319635
 Thermal correction to Enthalpy=                  0.320579
 Thermal correction to Gibbs Free Energy=         0.245029
 Sum of electronic and zero-point Energies=          -1704.959801
 Sum of electronic and thermal Energies=             -1704.937715
 Sum of electronic and thermal Enthalpies=           -1704.936770
 Sum of electronic and thermal Free Energies=        -1705.012320

                     E (Thermal)             CV                S
                      KCal/Mol        Cal/Mol-Kelvin    Cal/Mol-Kelvin
 Total                  200.574             85.878            159.007
 Electronic               0.000              0.000              0.000
 Translational            0.889              2.981             43.737
 Rotational               0.889              2.981             36.000
 Vibrational            198.796             79.917             79.270
 Vibration     1          0.593              1.985              6.498
 Vibration     2          0.594              1.984              5.772
 Vibration     3          0.595              1.980              5.040
 Vibration     4          0.596              1.975              4.581
 Vibration     5          0.597              1.973              4.408
 Vibration     6          0.601              1.960              3.784
 Vibration     7          0.604              1.950              3.479
 Vibration     8          0.608              1.937              3.179
 Vibration     9          0.612              1.921              2.913
 Vibration    10          0.616              1.908              2.737
 Vibration    11          0.622              1.889              2.523
 Vibration    12          0.631              1.863              2.294
 Vibration    13          0.633              1.854              2.228
 Vibration    14          0.647              1.812              1.968
 Vibration    15          0.655              1.785              1.831
 Vibration    16          0.665              1.755              1.697
 Vibration    17          0.669              1.743              1.650
 Vibration    18          0.684              1.698              1.494
 Vibration    19          0.700              1.653              1.359
 Vibration    20          0.708              1.628              1.292
 Vibration    21          0.726              1.577              1.170
 Vibration    22          0.734              1.555              1.124
 Vibration    23          0.762              1.480              0.980
 Vibration    24          0.780              1.435              0.904
 Vibration    25          0.795              1.396              0.845
 Vibration    26          0.812              1.353              0.785
 Vibration    27          0.820              1.333              0.758
 Vibration    28          0.824              1.324              0.747
 Vibration    29          0.850              1.262              0.672
 Vibration    30          0.869              1.219              0.624
 Vibration    31          0.880              1.195              0.599
 Vibration    32          0.889              1.174              0.578
 Vibration    33          0.902              1.147              0.551
 Vibration    34          0.921              1.107              0.514
 Vibration    35          0.928              1.093              0.501
 Vibration    36          0.937              1.075              0.485
 Vibration    37          0.951              1.047              0.462
 Vibration    38          0.959              1.029              0.448

 Optimization completed.
    -- Stationary point found.
 Normal termination of Gaussian 16 at Fri Jul  1 14:55:28 2022.
