 Gaussian 16, Revision C.01,
 Gaussian 16:  ES64L-G16RevC.01  3-Jul-2019

 --------------------------------------------------
 #M062X/gen 6D INT(grid=ultrafine) OPT Freq=noraman
 --------------------------------------------------

 ----------
 HA.32.freq
 ----------
 Symbolic Z-matrix:
 Charge =  0 Multiplicity = 1

 SCF Done:  E(RM062X) =  -1992.77054346     A.U. after   17 cycles
 SCF Done:  E(RM062X) =  -1992.77349744     A.U. after   15 cycles
 SCF Done:  E(RM062X) =  -1992.77393601     A.U. after   14 cycles
 SCF Done:  E(RM062X) =  -1992.77405400     A.U. after   14 cycles
 SCF Done:  E(RM062X) =  -1992.77413889     A.U. after   13 cycles
 SCF Done:  E(RM062X) =  -1992.77419935     A.U. after   14 cycles
 SCF Done:  E(RM062X) =  -1992.77423524     A.U. after   13 cycles
 SCF Done:  E(RM062X) =  -1992.77424209     A.U. after   12 cycles
 SCF Done:  E(RM062X) =  -1992.77424366     A.U. after   12 cycles
 SCF Done:  E(RM062X) =  -1992.77424502     A.U. after   11 cycles
 SCF Done:  E(RM062X) =  -1992.77424565     A.U. after   11 cycles
 SCF Done:  E(RM062X) =  -1992.77424640     A.U. after   11 cycles
 SCF Done:  E(RM062X) =  -1992.77424714     A.U. after   12 cycles
 SCF Done:  E(RM062X) =  -1992.77424769     A.U. after   11 cycles
 SCF Done:  E(RM062X) =  -1992.77424808     A.U. after   11 cycles
 SCF Done:  E(RM062X) =  -1992.77424823     A.U. after   10 cycles
 SCF Done:  E(RM062X) =  -1992.77424829     A.U. after   10 cycles
 Optimization completed.
    -- Stationary point found.
 Normal termination of Gaussian 16 at Fri Jul  1 09:20:42 2022.

 ------------------------------------------------------------------
 #N Geom=AllCheck Guess=TCheck SCRF=Check GenChk RM062X/ChkBas Freq
 ------------------------------------------------------------------

 Structure from the checkpoint file:  "/jobfs/49776062.gadi-pbs/Gau-3613461.chk"
 ----------
 HA.32.freq
 ----------
 Charge =  0 Multiplicity = 1

                         Standard orientation:
 ---------------------------------------------------------------------
 Center     Atomic      Atomic             Coordinates (Angstroms)
 Number     Number       Type             X           Y           Z
 ---------------------------------------------------------------------
      1          6           0        1.230443   -0.103802    0.038746
      2          6           0        1.204111    1.298513    0.033962
      3         17           0        2.671898    2.229967    0.027280
      4          6           0        0.011315    1.996768    0.003662
      5          1           0        0.029856    3.081955   -0.021360
      6          6           0       -1.220107    1.314217   -0.003860
      7          6           0       -1.176768   -0.095010    0.011407
      8         16           0       -2.691828   -1.006510    0.057464
      9          6           0        0.022242   -0.790558    0.020827
     10          1           0        0.026812   -1.878026    0.011854
     11         16           0        2.735459   -1.072310    0.115126
     12          8           0        3.534833   -0.574701    1.215209
     13          8           0        2.311200   -2.456292    0.017247
     14          7           0        3.600868   -0.764643   -1.265197
     15          1           0        3.952536    0.188041   -1.314437
     16          1           0        3.120069   -1.063376   -2.109681
     17          7           0       -2.392576    2.010767   -0.078776
     18          6           0       -3.702659    1.385382   -0.041708
     19          7           0       -3.617448    0.128327   -0.781898
     20          8           0       -2.607178   -2.200492   -0.760202
     21          8           0       -3.147967   -1.097469    1.438123
     22          1           0       -4.410358    2.033968   -0.560750
     23          1           0       -4.526677   -0.275331   -1.007951
     24          1           0       -2.349610    3.016045    0.003485
     25          1           0       -4.037440    1.225829    0.993504
 ---------------------------------------------------------------------

 SCF Done:  E(RM062X) =  -1992.77424829     A.U. after    1 cycles

 The electronic state is 1-A.
 Alpha  occ. eigenvalues -- -102.70691 -90.18379 -90.17812 -19.66471 -19.66070
 Alpha  occ. eigenvalues --  -19.65120 -19.64938 -14.83528 -14.82701 -14.80875
 Alpha  occ. eigenvalues --  -10.66869 -10.66783 -10.66501 -10.61762 -10.61484
 Alpha  occ. eigenvalues --  -10.61304 -10.60476  -9.85335  -8.49443  -8.48681
 Alpha  occ. eigenvalues --   -7.57746  -7.57078  -7.57037  -6.41657  -6.41582
 Alpha  occ. eigenvalues --   -6.41513  -6.40899  -6.40847  -6.40788  -1.26619
 Alpha  occ. eigenvalues --   -1.25614  -1.14891  -1.14134  -1.12888  -1.05641
 Alpha  occ. eigenvalues --   -1.03807  -1.02935  -0.98103  -0.90961  -0.89317
 Alpha  occ. eigenvalues --   -0.82728  -0.78696  -0.77297  -0.73864  -0.69555
 Alpha  occ. eigenvalues --   -0.66704  -0.66107  -0.63251  -0.62709  -0.61088
 Alpha  occ. eigenvalues --   -0.60755  -0.58717  -0.57640  -0.57025  -0.56184
 Alpha  occ. eigenvalues --   -0.55256  -0.53878  -0.53038  -0.52294  -0.51123
 Alpha  occ. eigenvalues --   -0.48221  -0.46117  -0.44500  -0.43210  -0.42724
 Alpha  occ. eigenvalues --   -0.42016  -0.41473  -0.41086  -0.40626  -0.40020
 Alpha  occ. eigenvalues --   -0.39156  -0.38748  -0.37765  -0.37139  -0.34251
 Alpha  occ. eigenvalues --   -0.30159
 Alpha virt. eigenvalues --   -0.03608  -0.02449  -0.01925  -0.00051   0.00282
 Alpha virt. eigenvalues --    0.01709   0.02235   0.02490   0.03239   0.04512
 Alpha virt. eigenvalues --    0.04959   0.05529   0.05836   0.06667   0.06888

 Mulliken charges:
               1
     1  C   -2.320259
     2  C    1.181609
     3  Cl   0.254459
     4  C   -1.399942
     5  H    0.231693
     6  C    0.945794
     7  C   -0.096453
     8  S    1.769392
     9  C   -0.254928
    10  H    0.310177
    11  S    1.456295
    12  O   -0.398045
    13  O   -0.559469
    14  N   -0.911936
    15  H    0.444023
    16  H    0.445992
    17  N   -0.619268
    18  C   -0.199794
    19  N   -0.765316
    20  O   -0.518352
    21  O   -0.415510
    22  H    0.228473
    23  H    0.476324
    24  H    0.450118
    25  H    0.264922
 Sum of Mulliken charges =  -0.00000

 Dipole moment (field-independent basis, Debye):
    X=             -4.7676    Y=              8.5720    Z=             -4.0311  Tot=             10.6046
 Quadrupole moment (field-independent basis, Debye-Ang):
   XX=           -112.8913   YY=           -121.1165   ZZ=           -124.6072
   XY=             -9.0157   XZ=             -7.0459   YZ=              2.0197

  Exact polarizability:     220.629      -2.973     166.079      -1.768       1.752     108.653
 Approx polarizability:     242.030      -0.614     221.786       0.230       4.831     152.537

                      1                      2                      3
                      A                      A                      A
 Frequencies --     41.1332                52.7304                74.9711
 Red. masses --      8.0962                 6.7348                 8.6135
 Frc consts  --      0.0081                 0.0110                 0.0285
 IR Inten    --      2.3224                 4.1456                 3.3132

                      4                      5                      6
                      A                      A                      A
 Frequencies --    105.0127               130.1696               173.2336
 Red. masses --      8.1014                 8.8709                10.2278
 Frc consts  --      0.0526                 0.0886                 0.1808
 IR Inten    --      4.8124                 2.6267                 3.5385

                      7                      8                      9
                      A                      A                      A
 Frequencies --    190.0271               201.1252               243.0210
 Red. masses --      7.1660                 5.5713                 8.2148
 Frc consts  --      0.1525                 0.1328                 0.2858
 IR Inten    --      7.5959                18.1359                 9.0402

                     10                     11                     12
                      A                      A                      A
 Frequencies --    248.1757               251.9697               271.6888
 Red. masses --      3.5873                 4.4917                 1.4612
 Frc consts  --      0.1302                 0.1680                 0.0635
 IR Inten    --     25.3508                 9.6599                25.9069

                     13                     14                     15
                      A                      A                      A
 Frequencies --    295.3137               307.6000               347.3666
 Red. masses --      1.8676                 4.7014                 3.5257
 Frc consts  --      0.0960                 0.2621                 0.2507
 IR Inten    --     13.7064                10.7034                 3.8376

                     16                     17                     18
                      A                      A                      A
 Frequencies --    355.7345               384.8153               429.3584
 Red. masses --      4.3586                 6.8966                 4.1451
 Frc consts  --      0.3250                 0.6017                 0.4502
 IR Inten    --     20.0443                 1.2443                 6.7570

                     19                     20                     21
                      A                      A                      A
 Frequencies --    450.9583               484.9911               486.8393
 Red. masses --      2.3408                 2.8532                 6.6103
 Frc consts  --      0.2805                 0.3954                 0.9231
 IR Inten    --     34.1102                48.7992                23.8465

                     22                     23                     24
                      A                      A                      A
 Frequencies --    501.7726               518.2012               531.8054
 Red. masses --      6.3230                 7.6460                 7.5925
 Frc consts  --      0.9380                 1.2097                 1.2651
 IR Inten    --     63.4293                 6.8903                33.6333

                     25                     26                     27
                      A                      A                      A
 Frequencies --    541.6620               577.9945               606.4358
 Red. masses --      7.3883                 3.9597                 2.6139
 Frc consts  --      1.2772                 0.7794                 0.5664
 IR Inten    --     13.8743                48.2172               114.5917

                     28                     29                     30
                      A                      A                      A
 Frequencies --    643.4444               660.2799               702.3354
 Red. masses --      2.9150                 9.6772                 4.1733
 Frc consts  --      0.7111                 2.4857                 1.2129
 IR Inten    --    225.9142                21.7194               307.9401

                     31                     32                     33
                      A                      A                      A
 Frequencies --    717.0665               730.7355               802.2110
 Red. masses --      5.5106                 4.5153                 6.3257
 Frc consts  --      1.6694                 1.4206                 2.3985
 IR Inten    --      9.6291                 9.8683                38.0538

                     34                     35                     36
                      A                      A                      A
 Frequencies --    862.0577               867.6693               868.5792
 Red. masses --      2.6575                 2.8220                 1.9375
 Frc consts  --      1.1636                 1.2517                 0.8612
 IR Inten    --     38.3073                21.5421                46.1343

                     37                     38                     39
                      A                      A                      A
 Frequencies --    942.1046               968.1166              1039.8780
 Red. masses --      6.1157                 1.3407                 3.1592
 Frc consts  --      3.1981                 0.7404                 2.0128
 IR Inten    --    112.1793                 6.6032                64.1703

                     40                     41                     42
                      A                      A                      A
 Frequencies --   1091.7369              1110.6596              1120.2200
 Red. masses --      3.4416                 1.2592                 2.1491
 Frc consts  --      2.4168                 0.9152                 1.5890
 IR Inten    --     47.5341                 3.4278                22.6307

                     43                     44                     45
                      A                      A                      A
 Frequencies --   1148.3879              1158.7117              1177.1887
 Red. masses --      2.9418                 3.1329                 5.3553
 Frc consts  --      2.2858                 2.4782                 4.3725
 IR Inten    --     17.8748                44.5342               150.8956

                     46                     47                     48
                      A                      A                      A
 Frequencies --   1196.7852              1267.9080              1298.3841
 Red. masses --      8.3910                 1.3277                 1.3680
 Frc consts  --      7.0811                 1.2576                 1.3588
 IR Inten    --    304.4546                38.3435                18.1066

                     49                     50                     51
                      A                      A                      A
 Frequencies --   1317.6758              1336.6437              1359.5451
 Red. masses --      1.8848                 2.0340                 6.7685
 Frc consts  --      1.9282                 2.1411                 7.3711
 IR Inten    --     11.6841                94.8577                62.5757

                     52                     53                     54
                      A                      A                      A
 Frequencies --   1378.0167              1404.5052              1415.0035
 Red. masses --      3.0063                 9.6103                 3.0473
 Frc consts  --      3.3635                11.1695                 3.5948
 IR Inten    --    165.1088               176.8585                16.8814

                     55                     56                     57
                      A                      A                      A
 Frequencies --   1448.0116              1520.4462              1540.5460
 Red. masses --      1.4752                 2.3310                 1.1792
 Frc consts  --      1.8224                 3.1749                 1.6489
 IR Inten    --     96.8581                28.8105                15.7522

                     58                     59                     60
                      A                      A                      A
 Frequencies --   1579.9627              1618.1525              1633.9053
 Red. masses --      3.0453                 1.1132                 5.5462
 Frc consts  --      4.4790                 1.7174                 8.7236
 IR Inten    --    193.5624                54.6911                57.6826

                     61                     62                     63
                      A                      A                      A
 Frequencies --   1681.5981              3055.0549              3161.5373
 Red. masses --      6.7526                 1.0694                 1.0971
 Frc consts  --     11.2503                 5.8809                 6.4611
 IR Inten    --    405.8538                40.6968                11.1667

                     64                     65                     66
                      A                      A                      A
 Frequencies --   3235.0056              3236.4990              3542.8165
 Red. masses --      1.0916                 1.0921                 1.0465
 Frc consts  --      6.7308                 6.7400                 7.7389
 IR Inten    --      3.5982                13.7569                39.8945

                     67                     68                     69
                      A                      A                      A
 Frequencies --   3554.7944              3662.9813              3673.1066
 Red. masses --      1.0759                 1.1006                 1.0781
 Frc consts  --      8.0106                 8.7006                 8.5699
 IR Inten    --     69.1898                50.9180                73.9306

 - Thermochemistry -
 -------------------
 Temperature   298.150 Kelvin.  Pressure   1.00000 Atm.
 Atom     1 has atomic number  6 and mass  12.00000

 Molecular mass:   296.96448 amu.
 Principal axes and moments of inertia in atomic units:
                           1         2         3
     Eigenvalues --  2717.088907666.105959625.48956
           X            0.99979  -0.02019  -0.00451
           Y            0.02021   0.99979   0.00411
           Z            0.00442  -0.00420   0.99998
 This molecule is an asymmetric top.
 Rotational symmetry number  1.
 Warning -- assumption of classical behavior for rotation
           may cause significant error
 Rotational temperatures (Kelvin)      0.03188     0.01130     0.00900
 Rotational constants (GHZ):           0.66422     0.23542     0.18750
 Zero-point vibrational energy     451795.9 (Joules/Mol)
                                  107.98181 (Kcal/Mol)
 Warning -- explicit consideration of  27 degrees of freedom as
           vibrations may cause significant error
 Vibrational temperatures:     59.18    75.87   107.87   151.09   187.28
          (Kelvin)            249.24   273.41   289.37   349.65   357.07
                              362.53   390.90   424.89   442.57   499.78
                              511.82   553.66   617.75   648.83   697.79
                              700.45   721.94   745.58   765.15   779.33
                              831.61   872.53   925.77   950.00  1010.50
                             1031.70  1051.37  1154.20  1240.31  1248.38
                             1249.69  1355.48  1392.90  1496.15  1570.77
                             1597.99  1611.75  1652.27  1667.13  1693.71
                             1721.91  1824.24  1868.09  1895.84  1923.13
                             1956.08  1982.66  2020.77  2035.87  2083.37
                             2187.58  2216.50  2273.21  2328.16  2350.83
                             2419.44  4395.54  4548.75  4654.45  4656.60
                             5097.32  5114.56  5270.21  5284.78

 Zero-point correction=                           0.172080 (Hartree/Particle)
 Thermal correction to Energy=                    0.187719
 Thermal correction to Enthalpy=                  0.188663
 Thermal correction to Gibbs Free Energy=         0.128711
 Sum of electronic and zero-point Energies=          -1992.602168
 Sum of electronic and thermal Energies=             -1992.586530
 Sum of electronic and thermal Enthalpies=           -1992.585585
 Sum of electronic and thermal Free Energies=        -1992.645537

                     E (Thermal)             CV                S
                      KCal/Mol        Cal/Mol-Kelvin    Cal/Mol-Kelvin
 Total                  117.795             59.442            126.180
 Electronic               0.000              0.000              0.000
 Translational            0.889              2.981             42.962
 Rotational               0.889              2.981             33.660
 Vibrational            116.018             53.480             49.557
 Vibration     1          0.594              1.981              5.204
 Vibration     2          0.596              1.977              4.712
 Vibration     3          0.599              1.966              4.018
 Vibration     4          0.605              1.945              3.359
 Vibration     5          0.612              1.923              2.944
 Vibration     6          0.627              1.875              2.400
 Vibration     7          0.633              1.854              2.228
 Vibration     8          0.638              1.838              2.123
 Vibration     9          0.659              1.774              1.781
 Vibration    10          0.662              1.766              1.744
 Vibration    11          0.664              1.759              1.717
 Vibration    12          0.675              1.725              1.585
 Vibration    13          0.690              1.682              1.443
 Vibration    14          0.697              1.659              1.375
 Vibration    15          0.725              1.581              1.178
 Vibration    16          0.731              1.563              1.141
 Vibration    17          0.754              1.503              1.020
 Vibration    18          0.791              1.406              0.861
 Vibration    19          0.810              1.359              0.793
 Vibration    20          0.841              1.283              0.697
 Vibration    21          0.843              1.279              0.692
 Vibration    22          0.857              1.246              0.654
 Vibration    23          0.873              1.210              0.614
 Vibration    24          0.887              1.180              0.583
 Vibration    25          0.897              1.158              0.562
 Vibration    26          0.935              1.079              0.489
 Vibration    27          0.965              1.018              0.439

 Optimization completed.
    -- Stationary point found.
 Normal termination of Gaussian 16 at Fri Jul  1 09:30:31 2022.
