 Gaussian 16, Revision C.01,
 Gaussian 16:  ES64L-G16RevC.01  3-Jul-2019

 --------------------------------------------------
 #M062X/gen 6D INT(grid=ultrafine) OPT Freq=noraman
 --------------------------------------------------

 ----------
 HA.30.freq
 ----------
 Symbolic Z-matrix:
 Charge =  0 Multiplicity = 1

 SCF Done:  E(RM062X) =  -1870.15929858     A.U. after   17 cycles
 SCF Done:  E(RM062X) =  -1870.16240723     A.U. after   15 cycles
 SCF Done:  E(RM062X) =  -1870.16180811     A.U. after   15 cycles
 SCF Done:  E(RM062X) =  -1870.16297968     A.U. after   14 cycles
 SCF Done:  E(RM062X) =  -1870.16299681     A.U. after   14 cycles
 SCF Done:  E(RM062X) =  -1870.16314757     A.U. after   13 cycles
 SCF Done:  E(RM062X) =  -1870.16317600     A.U. after   13 cycles
 SCF Done:  E(RM062X) =  -1870.16318889     A.U. after   13 cycles
 SCF Done:  E(RM062X) =  -1870.16319295     A.U. after   11 cycles
 SCF Done:  E(RM062X) =  -1870.16319600     A.U. after   12 cycles
 SCF Done:  E(RM062X) =  -1870.16319833     A.U. after   12 cycles
 SCF Done:  E(RM062X) =  -1870.16319919     A.U. after   11 cycles
 SCF Done:  E(RM062X) =  -1870.16320023     A.U. after   12 cycles
 SCF Done:  E(RM062X) =  -1870.16320072     A.U. after   12 cycles
 SCF Done:  E(RM062X) =  -1870.16320086     A.U. after   12 cycles
 SCF Done:  E(RM062X) =  -1870.16320095     A.U. after   10 cycles
 Optimization completed.
    -- Stationary point found.
 Normal termination of Gaussian 16 at Fri Jul  1 09:16:54 2022.

 ------------------------------------------------------------------
 #N Geom=AllCheck Guess=TCheck SCRF=Check GenChk RM062X/ChkBas Freq
 ------------------------------------------------------------------

 Structure from the checkpoint file:  "/jobfs/49768607.gadi-pbs/Gau-2717208.chk"
 ----------
 HA.30.freq
 ----------
 Charge =  0 Multiplicity = 1

                         Standard orientation:
 ---------------------------------------------------------------------
 Center     Atomic      Atomic             Coordinates (Angstroms)
 Number     Number       Type             X           Y           Z
 ---------------------------------------------------------------------
      1          6           0        0.913397   -0.441271   -0.044470
      2          6           0        1.073154    0.959151   -0.011368
      3          6           0        2.427495    1.646231   -0.016838
      4          6           0       -0.035415    1.785864    0.002359
      5          1           0        0.101884    2.862151    0.014328
      6          6           0       -1.345799    1.266416    0.003807
      7          6           0       -1.480439   -0.134149   -0.003870
      8         16           0       -3.104210   -0.859208    0.036229
      9          6           0       -0.370633   -0.969142   -0.046502
     10          1           0       -0.505136   -2.046470   -0.107013
     11         16           0        2.258590   -1.636076   -0.132515
     12          8           0        1.624273   -2.912846   -0.401987
     13          8           0        3.284546   -1.072904   -0.983449
     14          7           0        2.917939   -1.785649    1.378918
     15          1           0        2.280914   -2.206586    2.049685
     16          1           0        3.364357   -0.936806    1.713410
     17          7           0       -2.422911    2.111531   -0.046708
     18          6           0       -3.791567    1.642064    0.139590
     19          7           0       -4.025937    0.400663   -0.573515
     20          8           0       -3.166206   -1.949049   -0.914669
     21          8           0       -3.495855   -1.023119    1.423139
     22          1           0       -2.244369    3.100149    0.065641
     23          9           0        2.318013    2.925637    0.387039
     24          9           0        2.985187    1.667790   -1.224085
     25          9           0        3.289170    1.059269    0.837472
     26          1           0       -4.016612    1.453037    1.194990
     27          1           0       -4.473856    2.403407   -0.240880
     28          1           0       -3.907452    0.467958   -1.584790
 ---------------------------------------------------------------------

 SCF Done:  E(RM062X) =  -1870.16320095     A.U. after    2 cycles

 The electronic state is 1-A.
 Alpha  occ. eigenvalues --  -90.19035 -90.18268 -25.32810 -25.32552 -25.31764
 Alpha  occ. eigenvalues --  -19.67034 -19.66762 -19.65535 -19.65423 -14.83970
 Alpha  occ. eigenvalues --  -14.83241 -14.81141 -10.84191 -10.67182 -10.66988
 Alpha  occ. eigenvalues --  -10.63813 -10.62570 -10.62477 -10.61776 -10.61473
 Alpha  occ. eigenvalues --   -8.50028  -8.49132  -6.42249  -6.42185  -6.42104
 Alpha  occ. eigenvalues --   -6.41344  -6.41302  -6.41243  -1.49291  -1.40062
 Alpha  occ. eigenvalues --   -1.39617  -1.27398  -1.26108  -1.15801  -1.14683
 Alpha  occ. eigenvalues --   -1.13420  -1.06082  -1.03786  -1.02066  -0.94292
 Alpha  occ. eigenvalues --   -0.91291  -0.85471  -0.83269  -0.79248  -0.77873
 Alpha  occ. eigenvalues --   -0.74811  -0.72613  -0.71643  -0.71364  -0.69925
 Alpha  occ. eigenvalues --   -0.67014  -0.65818  -0.64161  -0.63133  -0.61859
 Alpha  occ. eigenvalues --   -0.60094  -0.59462  -0.59205  -0.58201  -0.57941
 Alpha  occ. eigenvalues --   -0.56697  -0.56158  -0.56052  -0.55315  -0.54508
 Alpha  occ. eigenvalues --   -0.54176  -0.53328  -0.52845  -0.51174  -0.50360
 Alpha  occ. eigenvalues --   -0.47946  -0.44183  -0.43889  -0.43319  -0.42993
 Alpha  occ. eigenvalues --   -0.41820  -0.41382  -0.40849  -0.40014  -0.39567
 Alpha  occ. eigenvalues --   -0.39216  -0.37758  -0.36547  -0.31107
 Alpha virt. eigenvalues --   -0.05244  -0.03385  -0.02280   0.00155   0.00301
 Alpha virt. eigenvalues --    0.01202   0.02569   0.02985   0.03554   0.04204
 Alpha virt. eigenvalues --    0.04934   0.05555   0.05850   0.06343   0.06777

 Mulliken charges:
               1
     1  C   -1.661335
     2  C    0.456742
     3  C    1.630166
     4  C   -1.402722
     5  H    0.242552
     6  C    0.047167
     7  C    0.143921
     8  S    1.886214
     9  C   -0.305197
    10  H    0.309984
    11  S    1.665216
    12  O   -0.546877
    13  O   -0.461801
    14  N   -0.987859
    15  H    0.448259
    16  H    0.465797
    17  N   -0.538647
    18  C   -0.281356
    19  N   -0.772468
    20  O   -0.472652
    21  O   -0.457574
    22  H    0.446428
    23  F   -0.322356
    24  F   -0.208115
    25  F   -0.323244
    26  H    0.278312
    27  H    0.240826
    28  H    0.480618
 Sum of Mulliken charges =  -0.00000

 Dipole moment (field-independent basis, Debye):
    X=             -3.4877    Y=              8.1532    Z=              2.4409  Tot=              9.1977
 Quadrupole moment (field-independent basis, Debye-Ang):
   XX=           -141.6789   YY=           -129.9613   ZZ=           -127.6155
   XY=            -18.1716   XZ=             15.9401   YZ=             -6.4184

  Exact polarizability:     210.585     -14.714     170.437       1.544      -0.864     113.665
 Approx polarizability:     232.527     -10.486     225.306      -2.151       1.005     159.838

                      1                      2                      3
                      A                      A                      A
 Frequencies --     33.9680                49.2107                70.3721
 Red. masses --      7.3970                 9.2250                 8.5281
 Frc consts  --      0.0050                 0.0132                 0.0249
 IR Inten    --      4.4424                 2.5491                 1.8271

                      4                      5                      6
                      A                      A                      A
 Frequencies --     92.6943               113.3269               129.1033
 Red. masses --      9.0512                 7.9944                10.4173
 Frc consts  --      0.0458                 0.0605                 0.1023
 IR Inten    --      3.5043                 1.2805                 6.5433

                      7                      8                      9
                      A                      A                      A
 Frequencies --    155.5046               163.4835               199.1270
 Red. masses --      9.6110                13.4806                 6.2619
 Frc consts  --      0.1369                 0.2123                 0.1463
 IR Inten    --      2.4556                 2.0210                 2.2570

                     10                     11                     12
                      A                      A                      A
 Frequencies --    221.7627               227.0270               256.5193
 Red. masses --     14.0126                 8.5230                 3.0489
 Frc consts  --      0.4060                 0.2588                 0.1182
 IR Inten    --      0.4191                 5.2105                21.4731

                     13                     14                     15
                      A                      A                      A
 Frequencies --    282.5091               290.5735               310.2312
 Red. masses --      3.2918                 3.8024                 4.5213
 Frc consts  --      0.1548                 0.1892                 0.2564
 IR Inten    --     12.7448                16.5568                 7.7951

                     16                     17                     18
                      A                      A                      A
 Frequencies --    315.0758               335.8821               348.5351
 Red. masses --      3.4731                 1.5139                 3.0720
 Frc consts  --      0.2031                 0.1006                 0.2199
 IR Inten    --     39.2758                44.5562                11.3663

                     19                     20                     21
                      A                      A                      A
 Frequencies --    367.8205               408.1849               443.8998
 Red. masses --      6.2858                 5.1665                 4.5348
 Frc consts  --      0.5011                 0.5072                 0.5265
 IR Inten    --      9.0255                15.4462                10.4675

                     22                     23                     24
                      A                      A                      A
 Frequencies --    456.8687               485.6960               489.3803
 Red. masses --      2.8520                 4.7022                 5.5452
 Frc consts  --      0.3507                 0.6535                 0.7825
 IR Inten    --     12.3601                 2.6140                 4.7773

                     25                     26                     27
                      A                      A                      A
 Frequencies --    505.7865               512.0682               525.2411
 Red. masses --      5.8425                 9.9855                 8.0982
 Frc consts  --      0.8806                 1.5427                 1.3163
 IR Inten    --      8.6100                19.8128                 8.4652

                     28                     29                     30
                      A                      A                      A
 Frequencies --    536.8257               569.4080               577.6735
 Red. masses --      8.3322                 5.4737                 7.9712
 Frc consts  --      1.4147                 1.0456                 1.5673
 IR Inten    --     62.1444                38.8827                 9.4038

                     31                     32                     33
                      A                      A                      A
 Frequencies --    598.3759               635.4163               685.7319
 Red. masses --      6.0688                 2.5846                 3.5756
 Frc consts  --      1.2803                 0.6148                 0.9906
 IR Inten    --     10.6806               280.9850               178.0119

                     34                     35                     36
                      A                      A                      A
 Frequencies --    688.8624               708.8605               740.7948
 Red. masses --      2.8643                 9.6279                 5.2199
 Frc consts  --      0.8008                 2.8504                 1.6877
 IR Inten    --    169.4764                 3.1366                 4.1734

                     37                     38                     39
                      A                      A                      A
 Frequencies --    749.2649               761.9603               770.1060
 Red. masses --      4.0250                 4.8161                 6.2780
 Frc consts  --      1.3313                 1.6474                 2.1937
 IR Inten    --      7.9847               247.4567                40.8806

                     40                     41                     42
                      A                      A                      A
 Frequencies --    862.0864               873.9776               904.1996
 Red. masses --      2.8856                 3.8697                 1.5771
 Frc consts  --      1.2635                 1.7415                 0.7597
 IR Inten    --     27.4771                36.4289                29.2569

                     43                     44                     45
                      A                      A                      A
 Frequencies --    948.2179               968.6821              1054.9866
 Red. masses --      6.7017                 1.3563                 3.1759
 Frc consts  --      3.5502                 0.7498                 2.0826
 IR Inten    --     71.6113                 6.4303                80.0437

                     46                     47                     48
                      A                      A                      A
 Frequencies --   1096.5656              1105.7275              1111.1803
 Red. masses --      2.2217                 4.4130                 1.2910
 Frc consts  --      1.5740                 3.1789                 0.9392
 IR Inten    --     59.2701                34.9256                 3.3943

                     49                     50                     51
                      A                      A                      A
 Frequencies --   1140.1935              1147.7659              1181.3086
 Red. masses --      3.6635                 2.8836                 8.4560
 Frc consts  --      2.8061                 2.2382                 6.9525
 IR Inten    --     27.6043                19.4336               198.8120

                     52                     53                     54
                      A                      A                      A
 Frequencies --   1192.7109              1222.2469              1254.5377
 Red. masses --     13.2108                 9.0810                 9.0488
 Frc consts  --     11.0726                 7.9928                 8.3909
 IR Inten    --    256.6363               279.9325               257.1257

                     55                     56                     57
                      A                      A                      A
 Frequencies --   1279.7244              1299.2511              1304.3118
 Red. masses --      1.5109                 1.6369                 1.4036
 Frc consts  --      1.4578                 1.6280                 1.4069
 IR Inten    --     33.4950                15.7550                33.0663

                     58                     59                     60
                      A                      A                      A
 Frequencies --   1341.8539              1352.3601              1381.7075
 Red. masses --      3.4784                 7.0370                 4.0009
 Frc consts  --      3.6901                 7.5827                 4.5003
 IR Inten    --     63.3036               213.5523               136.5688

                     61                     62                     63
                      A                      A                      A
 Frequencies --   1396.1877              1412.6140              1427.9954
 Red. masses --      2.1555                 4.4538                 2.9824
 Frc consts  --      2.4757                 5.2364                 3.5832
 IR Inten    --    109.9629               197.1892                81.0591

                     64                     65                     66
                      A                      A                      A
 Frequencies --   1456.0351              1525.1670              1545.8421
 Red. masses --      1.4437                 1.1404                 2.8066
 Frc consts  --      1.8033                 1.5629                 3.9515
 IR Inten    --     49.0368                 2.6589                22.0734

                     67                     68                     69
                      A                      A                      A
 Frequencies --   1570.1975              1616.4889              1640.0113
 Red. masses --      2.8305                 1.1146                 6.8277
 Frc consts  --      4.1117                 1.7160                10.8197
 IR Inten    --    294.3747                53.7072                42.9568

                     70                     71                     72
                      A                      A                      A
 Frequencies --   1691.6328              3107.7326              3176.5394
 Red. masses --      6.6518                 1.0644                 1.1046
 Frc consts  --     11.2150                 6.0565                 6.5667
 IR Inten    --    164.8294                20.9114                 7.1967

                     73                     74                     75
                      A                      A                      A
 Frequencies --   3235.7367              3243.4719              3546.3979
 Red. masses --      1.0916                 1.0911                 1.0758
 Frc consts  --      6.7340                 6.7632                 7.9718
 IR Inten    --     15.3891                 2.1168                44.0526

                     76                     77                     78
                      A                      A                      A
 Frequencies --   3552.7756              3655.3259              3674.4017
 Red. masses --      1.0465                 1.0780                 1.1006
 Frc consts  --      7.7826                 8.4865                 8.7549
 IR Inten    --     46.5156                64.1678                65.0289

 - Thermochemistry -
 -------------------
 Temperature   298.150 Kelvin.  Pressure   1.00000 Atm.
 Atom     1 has atomic number  6 and mass  12.00000

 Molecular mass:   330.99083 amu.
 Principal axes and moments of inertia in atomic units:
                           1         2         3
     Eigenvalues --  3644.444038891.86944**********
           X            0.99947  -0.03204   0.00588
           Y            0.03208   0.99946  -0.00757
           Z           -0.00563   0.00776   0.99995
 This molecule is an asymmetric top.
 Rotational symmetry number  1.
 Warning -- assumption of classical behavior for rotation
           may cause significant error
 Rotational temperatures (Kelvin)      0.02377     0.00974     0.00756
 Rotational constants (GHZ):           0.49520     0.20297     0.15758
 Zero-point vibrational energy     492330.8 (Joules/Mol)
                                  117.66988 (Kcal/Mol)
 Warning -- explicit consideration of  31 degrees of freedom as
           vibrations may cause significant error
 Vibrational temperatures:     48.87    70.80   101.25   133.37   163.05
          (Kelvin)            185.75   223.74   235.22   286.50   319.07
                              326.64   369.07   406.47   418.07   446.35
                              453.32   483.26   501.46   529.21   587.29
                              638.67   657.33   698.81   704.11   727.71
                              736.75   755.70   772.37   819.25   831.14
                              860.93   914.22   986.62   991.12  1019.89
                             1065.84  1078.03  1096.29  1108.01  1240.35
                             1257.46  1300.94  1364.27  1393.72  1517.89
                             1577.71  1590.90  1598.74  1640.48  1651.38
                             1699.64  1716.04  1758.54  1805.00  1841.24
                             1869.33  1876.61  1930.63  1945.74  1987.97
                             2008.80  2032.44  2054.57  2094.91  2194.38
                             2224.12  2259.16  2325.77  2359.61  2433.88
                             4471.33  4570.33  4655.50  4666.63  5102.48
                             5111.65  5259.20  5286.64

 Zero-point correction=                           0.187519 (Hartree/Particle)
 Thermal correction to Energy=                    0.205175
 Thermal correction to Enthalpy=                  0.206120
 Thermal correction to Gibbs Free Energy=         0.141767
 Sum of electronic and zero-point Energies=          -1869.975682
 Sum of electronic and thermal Energies=             -1869.958026
 Sum of electronic and thermal Enthalpies=           -1869.957081
 Sum of electronic and thermal Free Energies=        -1870.021434

                     E (Thermal)             CV                S
                      KCal/Mol        Cal/Mol-Kelvin    Cal/Mol-Kelvin
 Total                  128.749             67.655            135.441
 Electronic               0.000              0.000              0.000
 Translational            0.889              2.981             43.286
 Rotational               0.889              2.981             34.272
 Vibrational            126.972             61.693             57.883
 Vibration     1          0.594              1.983              5.583
 Vibration     2          0.595              1.978              4.849
 Vibration     3          0.598              1.968              4.143
 Vibration     4          0.602              1.954              3.602
 Vibration     5          0.607              1.938              3.211
 Vibration     6          0.612              1.924              2.959
 Vibration     7          0.620              1.897              2.604
 Vibration     8          0.623              1.887              2.509
 Vibration     9          0.637              1.841              2.141
 Vibration    10          0.648              1.808              1.945
 Vibration    11          0.651              1.800              1.902
 Vibration    12          0.666              1.752              1.685
 Vibration    13          0.682              1.706              1.518
 Vibration    14          0.687              1.691              1.471
 Vibration    15          0.699              1.654              1.361
 Vibration    16          0.702              1.645              1.336
 Vibration    17          0.717              1.604              1.232
 Vibration    18          0.726              1.578              1.173
 Vibration    19          0.740              1.538              1.089
 Vibration    20          0.773              1.452              0.933
 Vibration    21          0.803              1.374              0.814
 Vibration    22          0.815              1.346              0.775
 Vibration    23          0.842              1.282              0.695
 Vibration    24          0.845              1.274              0.685
 Vibration    25          0.861              1.237              0.644
 Vibration    26          0.867              1.223              0.629
 Vibration    27          0.880              1.194              0.598
 Vibration    28          0.892              1.169              0.572
 Vibration    29          0.925              1.097              0.505
 Vibration    30          0.934              1.080              0.490
 Vibration    31          0.956              1.035              0.452

 Optimization completed.
    -- Stationary point found.
 Normal termination of Gaussian 16 at Fri Jul  1 09:31:06 2022.
