 Gaussian 16, Revision C.01,
 Gaussian 16:  ES64L-G16RevC.01  3-Jul-2019

 --------------------------------------------------
 #M062X/gen 6D INT(grid=ultrafine) OPT Freq=noraman
 --------------------------------------------------

 ----------
 HA.38.freq
 ----------
 Symbolic Z-matrix:
 Charge =  0 Multiplicity = 1

 SCF Done:  E(RM062X) =  -2358.90459603     A.U. after   17 cycles
 SCF Done:  E(RM062X) =  -2358.90763801     A.U. after   15 cycles
 SCF Done:  E(RM062X) =  -2358.90798023     A.U. after   14 cycles
 SCF Done:  E(RM062X) =  -2358.90806331     A.U. after   14 cycles
 SCF Done:  E(RM062X) =  -2358.90810071     A.U. after   14 cycles
 SCF Done:  E(RM062X) =  -2358.90812268     A.U. after   13 cycles
 SCF Done:  E(RM062X) =  -2358.90813964     A.U. after   12 cycles
 SCF Done:  E(RM062X) =  -2358.90814684     A.U. after   13 cycles
 SCF Done:  E(RM062X) =  -2358.90815177     A.U. after   13 cycles
 SCF Done:  E(RM062X) =  -2358.90815645     A.U. after   13 cycles
 SCF Done:  E(RM062X) =  -2358.91163306     A.U. after   15 cycles
 SCF Done:  E(RM062X) =  -2358.91171780     A.U. after   14 cycles
 SCF Done:  E(RM062X) =  -2358.91173253     A.U. after   13 cycles
 SCF Done:  E(RM062X) =  -2358.91174053     A.U. after   13 cycles
 SCF Done:  E(RM062X) =  -2358.91174218     A.U. after   11 cycles
 SCF Done:  E(RM062X) =  -2358.91174362     A.U. after   11 cycles
 SCF Done:  E(RM062X) =  -2358.91174505     A.U. after   11 cycles
 SCF Done:  E(RM062X) =  -2358.91174551     A.U. after   11 cycles
 SCF Done:  E(RM062X) =  -2358.91174556     A.U. after    9 cycles
 Optimization completed.
    -- Stationary point found.
 Normal termination of Gaussian 16 at Sat Jul  2 18:38:50 2022.

 ------------------------------------------------------------------
 #N Geom=AllCheck Guess=TCheck SCRF=Check GenChk RM062X/ChkBas Freq
 ------------------------------------------------------------------

 Structure from the checkpoint file:  "/jobfs/50094818.gadi-pbs/Gau-1981496.chk"
 ----------
 HA.38.freq
 ----------
 Charge =  0 Multiplicity = 1

                         Standard orientation:
 ---------------------------------------------------------------------
 Center     Atomic      Atomic             Coordinates (Angstroms)
 Number     Number       Type             X           Y           Z
 ---------------------------------------------------------------------
      1          6           0        0.866371   -0.428837   -0.025435
      2          6           0        1.143765    0.946541    0.006866
      3          6           0        0.075585    1.853298   -0.032225
      4          6           0       -1.238929    1.397116   -0.090733
      5          6           0       -1.478096    0.031416   -0.101677
      6          6           0       -0.440942   -0.894406   -0.078142
      7         16           0        2.239856   -1.596066    0.000092
      8          8           0        2.990110   -1.410824   -1.227551
      9          8           0        2.856101   -1.519463    1.312292
     10          7           0        1.456397   -3.063559   -0.088649
     11          1           0        1.651195   -3.530403   -0.971702
     12          1           0        1.691111   -3.641019    0.715540
     13         17           0        2.760741    1.524069    0.087872
     14         17           0        0.357157    3.557082   -0.016021
     15         16           0       -3.169420   -0.556962   -0.128951
     16          1           0       -2.061070    2.104311   -0.147967
     17          1           0       -0.644130   -1.958834   -0.122788
     18          8           0       -3.977425    0.516949   -0.672790
     19          8           0       -3.136158   -1.897823   -0.679737
     20          7           0       -3.648474   -0.728495    1.449857
     21          1           0       -3.707268    0.150931    1.955981
     22          1           0       -3.144097   -1.453232    1.953111
 ---------------------------------------------------------------------

 SCF Done:  E(RM062X) =  -2358.91174556     A.U. after    1 cycles

 The electronic state is 1-A.
 Alpha  occ. eigenvalues -- -102.70689-102.70678 -90.19687 -90.19240 -19.66928
 Alpha  occ. eigenvalues --  -19.66881 -19.66748 -19.66723 -14.82784 -14.82484
 Alpha  occ. eigenvalues --  -10.67845 -10.67015 -10.64164 -10.63168 -10.62291
 Alpha  occ. eigenvalues --  -10.62115  -9.85328  -9.85303  -8.50612  -8.50159
 Alpha  occ. eigenvalues --   -7.57752  -7.57736  -7.57058  -7.57028  -7.57024
 Alpha  occ. eigenvalues --   -7.56983  -6.42837  -6.42761  -6.42695  -6.42376
 Alpha  occ. eigenvalues --   -6.42326  -6.42254  -1.27410  -1.27205  -1.15868
 Alpha  occ. eigenvalues --   -1.15861  -1.06800  -1.05376  -1.04909  -0.99622
 Alpha  occ. eigenvalues --   -0.99228  -0.91257  -0.87849  -0.80397  -0.78671
 Alpha  occ. eigenvalues --   -0.73270  -0.71274  -0.66517  -0.64458  -0.64399
 Alpha  occ. eigenvalues --   -0.63086  -0.61867  -0.61128  -0.59477  -0.58673
 Alpha  occ. eigenvalues --   -0.55547  -0.55269  -0.54698  -0.53418  -0.51013
 Alpha  occ. eigenvalues --   -0.49582  -0.46369  -0.45619  -0.45468  -0.44239
 Alpha  occ. eigenvalues --   -0.43221  -0.42369  -0.42320  -0.41920  -0.41424
 Alpha  occ. eigenvalues --   -0.40987  -0.40804  -0.40308  -0.39032  -0.38300
 Alpha  occ. eigenvalues --   -0.35502  -0.33712
 Alpha virt. eigenvalues --   -0.05643  -0.04219  -0.01660  -0.00255   0.00432
 Alpha virt. eigenvalues --    0.01989   0.03360   0.03536   0.03825   0.04533
 Alpha virt. eigenvalues --    0.05034   0.05361   0.06097   0.06421   0.06847

 Mulliken charges:
               1
     1  C   -1.427598
     2  C    0.064109
     3  C    0.153319
     4  C   -0.722100
     5  C   -0.705940
     6  C    0.466872
     7  S    1.408496
     8  O   -0.452424
     9  O   -0.464391
    10  N   -1.083265
    11  H    0.460867
    12  H    0.454921
    13  Cl   0.397429
    14  Cl   0.298085
    15  S    1.649175
    16  H    0.287589
    17  H    0.308995
    18  O   -0.506787
    19  O   -0.537854
    20  N   -0.942310
    21  H    0.445940
    22  H    0.446872
 Sum of Mulliken charges =  -0.00000

 Dipole moment (field-independent basis, Debye):
    X=             -0.3583    Y=             -1.3541    Z=              3.4089  Tot=              3.6854
 Quadrupole moment (field-independent basis, Debye-Ang):
   XX=           -148.9909   YY=           -106.1227   ZZ=           -120.2227
   XY=             -6.3022   XZ=            -13.6207   YZ=             -1.4111

  Exact polarizability:     190.922       5.098     178.166      -1.362      -0.564     105.574
 Approx polarizability:     222.635       7.206     223.960       1.437      -0.025     146.411

                      1                      2                      3
                      A                      A                      A
 Frequencies --     29.8334                38.3882                62.5884
 Red. masses --      6.6835                 8.3932                20.3571
 Frc consts  --      0.0035                 0.0073                 0.0470
 IR Inten    --      4.3653                 6.9784                 0.2767

                      4                      5                      6
                      A                      A                      A
 Frequencies --     81.4229               107.2628               150.0582
 Red. masses --      6.9282                 9.7828                 6.3673
 Frc consts  --      0.0271                 0.0663                 0.0845
 IR Inten    --      3.8367                 4.4837                 4.5848

                      7                      8                      9
                      A                      A                      A
 Frequencies --    155.7674               213.2867               220.3989
 Red. masses --     10.9194                 6.3379                12.6779
 Frc consts  --      0.1561                 0.1699                 0.3628
 IR Inten    --      3.3306                 4.5604                 1.7868

                     10                     11                     12
                      A                      A                      A
 Frequencies --    240.6928               249.8185               254.6153
 Red. masses --      4.3295                 2.1596                 3.1135
 Frc consts  --      0.1478                 0.0794                 0.1189
 IR Inten    --      9.5533                 9.9572                 5.7125

                     13                     14                     15
                      A                      A                      A
 Frequencies --    281.4565               288.1308               310.0572
 Red. masses --     10.1044                 2.7443                 4.1620
 Frc consts  --      0.4716                 0.1342                 0.2357
 IR Inten    --      1.3599                 7.8395                13.6923

                     16                     17                     18
                      A                      A                      A
 Frequencies --    338.2213               358.6961               404.5752
 Red. masses --      3.8713                 4.4168                 3.0314
 Frc consts  --      0.2609                 0.3348                 0.2923
 IR Inten    --      2.6170                 7.7265                 0.3068

                     19                     20                     21
                      A                      A                      A
 Frequencies --    441.8295               459.1537               472.5941
 Red. masses --      2.8593                 9.4446                 6.6344
 Frc consts  --      0.3289                 1.1731                 0.8730
 IR Inten    --     14.4882                 6.5583                15.3983

                     22                     23                     24
                      A                      A                      A
 Frequencies --    480.2056               527.2155               558.8300
 Red. masses --      8.7179                 5.7346                 3.4491
 Frc consts  --      1.1845                 0.9391                 0.6346
 IR Inten    --     13.3905                47.6747                48.8783

                     25                     26                     27
                      A                      A                      A
 Frequencies --    563.0915               573.0987               600.4030
 Red. masses --      5.9573                 5.0656                 3.6158
 Frc consts  --      1.1129                 0.9802                 0.7680
 IR Inten    --      7.0294                74.3217               155.2141

                     28                     29                     30
                      A                      A                      A
 Frequencies --    612.8148               660.5458               674.7945
 Red. masses --      4.6313                 3.8112                 2.2688
 Frc consts  --      1.0247                 0.9797                 0.6087
 IR Inten    --     50.0260               371.9633               159.7389

                     31                     32                     33
                      A                      A                      A
 Frequencies --    721.7252               806.2014               845.7312
 Red. masses --      5.8322                 6.6831                 5.7865
 Frc consts  --      1.7899                 2.5593                 2.4386
 IR Inten    --      9.3472                25.0165                40.9999

                     34                     35                     36
                      A                      A                      A
 Frequencies --    883.9297               906.8864               935.3152
 Red. masses --      5.8962                 3.7534                 1.3984
 Frc consts  --      2.7143                 1.8188                 0.7208
 IR Inten    --    119.0682               147.8960                10.2059

                     37                     38                     39
                      A                      A                      A
 Frequencies --    958.5928              1071.3749              1100.1326
 Red. masses --      1.3196                 6.8601                 1.2490
 Frc consts  --      0.7144                 4.6394                 0.8907
 IR Inten    --      1.9250                34.9271                 1.1513

                     40                     41                     42
                      A                      A                      A
 Frequencies --   1108.8945              1146.3674              1169.6476
 Red. masses --      1.2643                 2.5361                14.2056
 Frc consts  --      0.9160                 1.9637                11.4504
 IR Inten    --      1.0575                43.6795               321.1973

                     43                     44                     45
                      A                      A                      A
 Frequencies --   1187.1641              1211.8768              1229.1739
 Red. masses --      3.0385                10.7965                 1.4137
 Frc consts  --      2.5231                 9.3422                 1.2585
 IR Inten    --     42.7991               150.4597                12.2003

                     46                     47                     48
                      A                      A                      A
 Frequencies --   1310.0951              1390.4474              1406.2071
 Red. masses --     11.2426                12.6345                12.6421
 Frc consts  --     11.3690                14.3918                14.7288
 IR Inten    --     12.4930               233.3429               186.4754

                     49                     50                     51
                      A                      A                      A
 Frequencies --   1430.8519              1462.0231              1615.8002
 Red. masses --      3.9977                 3.6805                 1.1138
 Frc consts  --      4.8222                 4.6352                 1.7132
 IR Inten    --     48.7057                69.6439                54.3270

                     52                     53                     54
                      A                      A                      A
 Frequencies --   1617.7007              1638.6605              1651.1143
 Red. masses --      1.1320                 8.8686                 6.1639
 Frc consts  --      1.7454                14.0308                 9.9006
 IR Inten    --     58.2033                 2.3674                12.0216

                     55                     56                     57
                      A                      A                      A
 Frequencies --   3248.1364              3264.3970              3537.2036
 Red. masses --      1.0928                 1.0912                 1.0472
 Frc consts  --      6.7929                 6.8509                 7.7196
 IR Inten    --      9.8837                20.1213                90.9552

                     58                     59                     60
                      A                      A                      A
 Frequencies --   3545.5455              3649.9412              3666.5555
 Red. masses --      1.0466                 1.0997                 1.1009
 Frc consts  --      7.7517                 8.6318                 8.7202
 IR Inten    --     47.5720                79.7847                48.3795

 - Thermochemistry -
 -------------------
 Temperature   298.150 Kelvin.  Pressure   1.00000 Atm.
 Atom     1 has atomic number  6 and mass  12.00000

 Molecular mass:   303.91461 amu.
 Principal axes and moments of inertia in atomic units:
                           1         2         3
     Eigenvalues --  3975.503466658.449379876.84667
           X            0.99974  -0.02126  -0.00820
           Y            0.02124   0.99977  -0.00206
           Z            0.00824   0.00188   0.99996
 This molecule is an asymmetric top.
 Rotational symmetry number  1.
 Warning -- assumption of classical behavior for rotation
           may cause significant error
 Rotational temperatures (Kelvin)      0.02179     0.01301     0.00877
 Rotational constants (GHZ):           0.45397     0.27105     0.18272
 Zero-point vibrational energy     359642.6 (Joules/Mol)
                                   85.95663 (Kcal/Mol)
 Warning -- explicit consideration of  28 degrees of freedom as
           vibrations may cause significant error
 Vibrational temperatures:     42.92    55.23    90.05   117.15   154.33
          (Kelvin)            215.90   224.11   306.87   317.10   346.30
                              359.43   366.33   404.95   414.56   446.10
                              486.62   516.08   582.09   635.69   660.62
                              679.96   690.91   758.55   804.03   810.16
                              824.56   863.85   881.70   950.38   970.88
                             1038.40  1159.94  1216.82  1271.78  1304.81
                             1345.71  1379.20  1541.47  1582.85  1595.45
                             1649.37  1682.86  1708.06  1743.62  1768.51
                             1884.93  2000.54  2023.22  2058.68  2103.53
                             2324.78  2327.51  2357.67  2375.59  4673.34
                             4696.74  5089.25  5101.25  5251.45  5275.36

 Zero-point correction=                           0.136981 (Hartree/Particle)
 Thermal correction to Energy=                    0.152966
 Thermal correction to Enthalpy=                  0.153910
 Thermal correction to Gibbs Free Energy=         0.092019
 Sum of electronic and zero-point Energies=          -2358.774765
 Sum of electronic and thermal Energies=             -2358.758780
 Sum of electronic and thermal Enthalpies=           -2358.757835
 Sum of electronic and thermal Free Energies=        -2358.819726

                     E (Thermal)             CV                S
                      KCal/Mol        Cal/Mol-Kelvin    Cal/Mol-Kelvin
 Total                   95.988             58.408            130.261
 Electronic               0.000              0.000              0.000
 Translational            0.889              2.981             43.031
 Rotational               0.889              2.981             33.924
 Vibrational             94.210             52.446             53.305
 Vibration     1          0.594              1.984              5.840
 Vibration     2          0.594              1.982              5.341
 Vibration     3          0.597              1.972              4.374
 Vibration     4          0.600              1.962              3.856
 Vibration     5          0.606              1.943              3.318
 Vibration     6          0.618              1.903              2.671
 Vibration     7          0.620              1.896              2.601
 Vibration     8          0.644              1.821              2.015
 Vibration     9          0.647              1.810              1.956
 Vibration    10          0.658              1.778              1.798
 Vibration    11          0.663              1.763              1.732
 Vibration    12          0.665              1.755              1.698
 Vibration    13          0.681              1.708              1.525
 Vibration    14          0.685              1.696              1.485
 Vibration    15          0.699              1.655              1.362
 Vibration    16          0.719              1.599              1.221
 Vibration    17          0.734              1.557              1.128
 Vibration    18          0.770              1.460              0.946
 Vibration    19          0.802              1.379              0.821
 Vibration    20          0.817              1.341              0.769
 Vibration    21          0.829              1.311              0.730
 Vibration    22          0.837              1.294              0.710
 Vibration    23          0.882              1.190              0.593
 Vibration    24          0.914              1.120              0.526
 Vibration    25          0.919              1.111              0.518
 Vibration    26          0.929              1.089              0.498
 Vibration    27          0.959              1.031              0.449
 Vibration    28          0.972              1.005              0.428

                           ! Non-Optimized Parameters !
 Normal termination of Gaussian 16 at Sat Jul  2 18:46:02 2022.
