 Gaussian 16, Revision C.01,
 Gaussian 16:  ES64L-G16RevC.01  3-Jul-2019

 --------------------------------------------------
 #M062X/gen 6D INT(grid=ultrafine) OPT Freq=noraman
 --------------------------------------------------

 ----------
 HA.40.freq
 ----------
 Symbolic Z-matrix:
 Charge =  0 Multiplicity = 1

 SCF Done:  E(RM062X) =  -1123.45659183     A.U. after   16 cycles
 SCF Done:  E(RM062X) =  -1123.45853634     A.U. after   14 cycles
 SCF Done:  E(RM062X) =  -1123.45873844     A.U. after   13 cycles
 SCF Done:  E(RM062X) =  -1123.45885409     A.U. after   13 cycles
 SCF Done:  E(RM062X) =  -1123.45887842     A.U. after   11 cycles
 SCF Done:  E(RM062X) =  -1123.45888270     A.U. after   11 cycles
 SCF Done:  E(RM062X) =  -1123.45888523     A.U. after   11 cycles
 SCF Done:  E(RM062X) =  -1123.45888715     A.U. after   11 cycles
 SCF Done:  E(RM062X) =  -1123.45888832     A.U. after   10 cycles
 SCF Done:  E(RM062X) =  -1123.45888872     A.U. after   11 cycles
 SCF Done:  E(RM062X) =  -1123.45888876     A.U. after    9 cycles
 Optimization completed.
    -- Stationary point found.
 Normal termination of Gaussian 16 at Sat Jul  2 11:48:32 2022.

 ------------------------------------------------------------------
 #N Geom=AllCheck Guess=TCheck SCRF=Check GenChk RM062X/ChkBas Freq
 ------------------------------------------------------------------

 Structure from the checkpoint file:  "/jobfs/50065394.gadi-pbs/Gau-200507.chk"
 ----------
 HA.40.freq
 ----------
 Charge =  0 Multiplicity = 1

                         Standard orientation:
 ---------------------------------------------------------------------
 Center     Atomic      Atomic             Coordinates (Angstroms)
 Number     Number       Type             X           Y           Z
 ---------------------------------------------------------------------
      1          6           0        1.070613    0.397104   -0.093199
      2          6           0        1.112582    1.804137   -0.285049
      3          6           0       -0.032532    2.559157   -0.270314
      4          6           0       -1.286650    1.935766   -0.088759
      5          6           0       -1.355261    0.572216    0.057709
      6          6           0       -0.188989   -0.255689    0.060650
      7         16           0       -3.000763   -0.133501    0.153466
      8          8           0       -3.025947   -1.137719    1.202039
      9          8           0       -3.943897    0.970564    0.125597
     10          7           0       -3.240674   -0.956543   -1.277775
     11          1           0       -2.588380   -1.726981   -1.406489
     12          1           0       -3.247771   -0.326711   -2.076664
     13          6           0       -0.222635   -1.675225    0.170573
     14          6           0        0.942112   -2.394273    0.090062
     15          6           0        2.195414   -1.755497   -0.042598
     16          6           0        2.280220   -0.380869   -0.094599
     17          7           0        3.514504    0.311052   -0.169299
     18          6           0        3.880813    0.987135    1.076203
     19          6           0        4.637171   -0.449741   -0.689398
     20          1           0        2.075230    2.267980   -0.473607
     21          1           0        0.014485    3.633009   -0.420462
     22          1           0       -2.203074    2.516994   -0.083100
     23          1           0       -1.158712   -2.185772    0.365288
     24          1           0        0.909648   -3.477053    0.168902
     25          1           0        3.095285   -2.360873   -0.064282
     26          1           0        3.030555    1.539628    1.479449
     27          1           0        4.694904    1.691037    0.877499
     28          1           0        4.216102    0.264942    1.839357
     29          1           0        4.353149   -0.939277   -1.624039
     30          1           0        5.006569   -1.213026    0.017354
     31          1           0        5.459008    0.242467   -0.893927
 ---------------------------------------------------------------------

 SCF Done:  E(RM062X) =  -1123.45888876     A.U. after    1 cycles

 The electronic state is 1-A.
 Alpha  occ. eigenvalues --  -90.16735 -19.64382 -19.64287 -14.80237 -14.78638
 Alpha  occ. eigenvalues --  -10.60845 -10.59944 -10.59373 -10.58569 -10.58492
 Alpha  occ. eigenvalues --  -10.58376 -10.58255 -10.57698 -10.57488 -10.57378
 Alpha  occ. eigenvalues --  -10.56799 -10.56652  -8.47681  -6.39898  -6.39852
 Alpha  occ. eigenvalues --   -6.39753  -1.24740  -1.13324  -1.07034  -1.02713
 Alpha  occ. eigenvalues --   -0.99877  -0.94491  -0.89715  -0.86216  -0.84480
 Alpha  occ. eigenvalues --   -0.82023  -0.76589  -0.75933  -0.72157  -0.70781
 Alpha  occ. eigenvalues --   -0.67578  -0.63049  -0.61940  -0.60702  -0.59466
 Alpha  occ. eigenvalues --   -0.58687  -0.57316  -0.55794  -0.54978  -0.53699
 Alpha  occ. eigenvalues --   -0.53124  -0.51547  -0.50193  -0.49095  -0.48645
 Alpha  occ. eigenvalues --   -0.47540  -0.46828  -0.46020  -0.44949  -0.43716
 Alpha  occ. eigenvalues --   -0.42195  -0.41612  -0.41320  -0.40219  -0.39715
 Alpha  occ. eigenvalues --   -0.38347  -0.36707  -0.36065  -0.31774  -0.31609
 Alpha  occ. eigenvalues --   -0.27118
 Alpha virt. eigenvalues --   -0.04206  -0.00764   0.00488   0.01160   0.01648
 Alpha virt. eigenvalues --    0.02439   0.03076   0.03341   0.03605   0.04157
 Alpha virt. eigenvalues --    0.04829   0.05463   0.05996   0.06276   0.06874

 Mulliken charges:
               1
     1  C   -0.332130
     2  C   -0.088852
     3  C   -0.102640
     4  C   -0.167835
     5  C   -0.668230
     6  C    0.937990
     7  S    1.519200
     8  O   -0.471555
     9  O   -0.563994
    10  N   -0.960646
    11  H    0.445610
    12  H    0.447485
    13  C   -0.380294
    14  C   -1.279851
    15  C    0.020451
    16  C    0.026292
    17  N   -0.279593
    18  C   -0.434289
    19  C   -0.407551
    20  H    0.248475
    21  H    0.218489
    22  H    0.268291
    23  H    0.244332
    24  H    0.215089
    25  H    0.207963
    26  H    0.231810
    27  H    0.221384
    28  H    0.221419
    29  H    0.227473
    30  H    0.213980
    31  H    0.221729
 Sum of Mulliken charges =  -0.00000

 Dipole moment (field-independent basis, Debye):
    X=              6.5914    Y=              0.1817    Z=             -3.0122  Tot=              7.2494
 Quadrupole moment (field-independent basis, Debye-Ang):
   XX=           -118.4759   YY=            -99.2804   ZZ=           -109.5935
   XY=             -0.9826   XZ=             10.9413   YZ=              3.4163

  Exact polarizability:     232.405      -6.764     196.211       1.104      -3.085     113.460
 Approx polarizability:     260.296     -12.390     276.200      -3.287     -10.122     151.576

                      1                      2                      3
                      A                      A                      A
 Frequencies --     46.2410                68.3826                90.7649
 Red. masses --      4.8072                 5.6216                 3.2058
 Frc consts  --      0.0061                 0.0155                 0.0156
 IR Inten    --      1.6520                 2.0652                 4.5648

                      4                      5                      6
                      A                      A                      A
 Frequencies --    128.5936               145.1680               168.3395
 Red. masses --      3.4706                 4.5001                 3.2782
 Frc consts  --      0.0338                 0.0559                 0.0547
 IR Inten    --      2.7974                 2.2712                 5.7503

                      7                      8                      9
                      A                      A                      A
 Frequencies --    183.8467               212.9048               241.9073
 Red. masses --      3.2169                 3.4004                 1.4514
 Frc consts  --      0.0641                 0.0908                 0.0500
 IR Inten    --      2.8330                 4.3086                 3.0937

                     10                     11                     12
                      A                      A                      A
 Frequencies --    253.8829               287.0200               299.9986
 Red. masses --      1.8071                 3.6399                 3.2521
 Frc consts  --      0.0686                 0.1767                 0.1724
 IR Inten    --      9.2868                 2.4755                 8.7820

                     13                     14                     15
                      A                      A                      A
 Frequencies --    320.4608               334.0833               346.6206
 Red. masses --      1.1876                 2.9079                 3.5780
 Frc consts  --      0.0719                 0.1912                 0.2533
 IR Inten    --      1.4779                 3.1580                 1.5403

                     16                     17                     18
                      A                      A                      A
 Frequencies --    366.6905               403.9558               440.5009
 Red. masses --      3.5143                 3.0462                 3.1762
 Frc consts  --      0.2784                 0.2929                 0.3631
 IR Inten    --      5.8617                 1.1950                13.8264

                     19                     20                     21
                      A                      A                      A
 Frequencies --    467.5640               475.8051               507.4576
 Red. masses --      7.4332                 3.3417                 4.3625
 Frc consts  --      0.9574                 0.4457                 0.6619
 IR Inten    --     15.2949                 1.1666                 3.3933

                     22                     23                     24
                      A                      A                      A
 Frequencies --    536.7501               543.5845               560.7919
 Red. masses --      6.2034                 5.1863                 5.2661
 Frc consts  --      1.0530                 0.9029                 0.9758
 IR Inten    --      3.5012                28.1712                11.6505

                     25                     26                     27
                      A                      A                      A
 Frequencies --    571.0939               604.0706               629.5857
 Red. masses --      6.1864                 3.3319                 4.5600
 Frc consts  --      1.1888                 0.7163                 1.0649
 IR Inten    --     15.0569                 3.1667                12.8482

                     28                     29                     30
                      A                      A                      A
 Frequencies --    701.1302               710.1866               761.4453
 Red. masses --      4.7603                 2.2478                 1.5918
 Frc consts  --      1.3788                 0.6680                 0.5438
 IR Inten    --      4.3645               513.8473                 0.6893

                     31                     32                     33
                      A                      A                      A
 Frequencies --    787.9993               819.4678               821.8870
 Red. masses --      5.4463                 4.0771                 1.4446
 Frc consts  --      1.9925                 1.6131                 0.5750
 IR Inten    --     18.3401                40.1295                81.9531

                     34                     35                     36
                      A                      A                      A
 Frequencies --    846.0061               862.1110               866.1470
 Red. masses --      2.7058                 4.5789                 3.1180
 Frc consts  --      1.1410                 2.0051                 1.3782
 IR Inten    --     22.1589                 5.5196                30.5456

                     37                     38                     39
                      A                      A                      A
 Frequencies --    927.6247               978.0577               981.3098
 Red. masses --      1.4365                 1.4945                 2.8908
 Frc consts  --      0.7283                 0.8423                 1.6401
 IR Inten    --      0.3705                 2.6562                14.3974

                     40                     41                     42
                      A                      A                      A
 Frequencies --   1013.0039              1028.8104              1086.4595
 Red. masses --      1.3224                 1.3165                 2.1375
 Frc consts  --      0.7995                 0.8210                 1.4866
 IR Inten    --      0.4500                 0.9484                28.1234

                     43                     44                     45
                      A                      A                      A
 Frequencies --   1089.9916              1100.9764              1116.2432
 Red. masses --      2.0431                 2.0202                 1.2678
 Frc consts  --      1.4302                 1.4428                 0.9307
 IR Inten    --     19.2123                16.8508                 4.9202

                     46                     47                     48
                      A                      A                      A
 Frequencies --   1126.1292              1138.8620              1171.5077
 Red. masses --      1.3703                 1.8304                 5.0620
 Frc consts  --      1.0239                 1.3987                 4.0932
 IR Inten    --      9.7071                 3.2010               227.4526

                     49                     50                     51
                      A                      A                      A
 Frequencies --   1184.2902              1192.2370              1210.5266
 Red. masses --      1.4850                 1.5428                 1.2755
 Frc consts  --      1.2271                 1.2921                 1.1012
 IR Inten    --      5.7340                56.2587                 2.8044

                     52                     53                     54
                      A                      A                      A
 Frequencies --   1235.1127              1241.2631              1242.0652
 Red. masses --      1.9496                 1.6171                 2.2514
 Frc consts  --      1.7523                 1.4680                 2.0464
 IR Inten    --     17.7703                 6.6027                11.0118

                     55                     56                     57
                      A                      A                      A
 Frequencies --   1275.9537              1365.0370              1382.2810
 Red. masses --      2.6795                 2.4542                 3.3495
 Frc consts  --      2.5702                 2.6943                 3.7707
 IR Inten    --     26.4141                36.6410                 8.5434

                     58                     59                     60
                      A                      A                      A
 Frequencies --   1386.2077              1418.5627              1448.5957
 Red. masses --     10.5464                 6.8275                 2.2779
 Frc consts  --     11.9401                 8.0948                 2.8163
 IR Inten    --    187.0849                30.9484                41.4113

                     61                     62                     63
                      A                      A                      A
 Frequencies --   1457.7201              1465.1706              1489.6374
 Red. masses --      1.3195                 2.0972                 1.2862
 Frc consts  --      1.6519                 2.6526                 1.6816
 IR Inten    --      3.6011                22.6950                 2.0187

                     64                     65                     66
                      A                      A                      A
 Frequencies --   1506.4583              1514.5652              1522.7884
 Red. masses --      1.0605                 1.8680                 1.1348
 Frc consts  --      1.4180                 2.5247                 1.5505
 IR Inten    --      7.3233                36.5810                11.1571

                     67                     68                     69
                      A                      A                      A
 Frequencies --   1529.5293              1548.1998              1572.1429
 Red. masses --      1.0758                 1.0944                 4.1410
 Frc consts  --      1.4828                 1.5455                 6.0304
 IR Inten    --     14.2508                22.1211                16.9923

                     70                     71                     72
                      A                      A                      A
 Frequencies --   1628.6125              1659.3636              1675.9753
 Red. masses --      1.1076                 7.3515                 5.5389
 Frc consts  --      1.7308                11.9264                 9.1666
 IR Inten    --     45.8021                69.6397                11.5848

                     73                     74                     75
                      A                      A                      A
 Frequencies --   1703.9209              3004.0326              3016.6879
 Red. masses --      6.6775                 1.0567                 1.0552
 Frc consts  --     11.4226                 5.6182                 5.6576
 IR Inten    --     12.4816                73.4260                85.7261

                     76                     77                     78
                      A                      A                      A
 Frequencies --   3123.4852              3125.5967              3173.8813
 Red. masses --      1.0766                 1.0818                 1.1039
 Frc consts  --      6.1883                 6.2268                 6.5519
 IR Inten    --     32.5345                27.5009                15.8117

                     79                     80                     81
                      A                      A                      A
 Frequencies --   3186.5386              3224.5480              3233.0544
 Red. masses --      1.1007                 1.0890                 1.0880
 Frc consts  --      6.5852                 6.6716                 6.7004
 IR Inten    --     13.8518                10.2903                 3.8939

                     82                     83                     84
                      A                      A                      A
 Frequencies --   3249.2210              3249.6870              3254.2829
 Red. masses --      1.0918                 1.0916                 1.0963
 Frc consts  --      6.7915                 6.7919                 6.8405
 IR Inten    --      8.1409                 1.5172                 5.3144

                     85                     86                     87
                      A                      A                      A
 Frequencies --   3260.4561              3534.7705              3648.8944
 Red. masses --      1.0938                 1.0472                 1.0989
 Frc consts  --      6.8508                 7.7094                 8.6208
 IR Inten    --      3.9935                27.8649                40.9921

 - Thermochemistry -
 -------------------
 Temperature   298.150 Kelvin.  Pressure   1.00000 Atm.
 Atom     1 has atomic number  6 and mass  12.00000

 Molecular mass:   250.07760 amu.
 Principal axes and moments of inertia in atomic units:
                           1         2         3
     Eigenvalues --  1856.084536752.200257992.03200
           X            0.99997   0.00109   0.00772
           Y           -0.00119   0.99991   0.01315
           Z           -0.00771  -0.01316   0.99988
 This molecule is an asymmetric top.
 Rotational symmetry number  1.
 Warning -- assumption of classical behavior for rotation
           may cause significant error
 Rotational temperatures (Kelvin)      0.04666     0.01283     0.01084
 Rotational constants (GHZ):           0.97234     0.26728     0.22582
 Zero-point vibrational energy     659816.9 (Joules/Mol)
                                  157.70003 (Kcal/Mol)
 Warning -- explicit consideration of  26 degrees of freedom as
           vibrations may cause significant error
 Vibrational temperatures:     66.53    98.39   130.59   185.02   208.86
          (Kelvin)            242.20   264.51   306.32   348.05   365.28
                              412.96   431.63   461.07   480.67   498.71
                              527.59   581.20   633.78   672.72   684.58
                              730.12   772.26   782.10   806.85   821.68
                              869.12   905.83  1008.77  1021.80  1095.55
                             1133.76  1179.03  1182.51  1217.21  1240.39
                             1246.19  1334.65  1407.21  1411.89  1457.49
                             1480.23  1563.17  1568.25  1584.06  1606.03
                             1620.25  1638.57  1685.54  1703.93  1715.36
                             1741.68  1777.05  1785.90  1787.05  1835.81
                             1963.98  1988.79  1994.44  2041.00  2084.21
                             2097.33  2108.05  2143.26  2167.46  2179.12
                             2190.95  2200.65  2227.51  2261.96  2343.21
                             2387.45  2411.35  2451.56  4322.13  4340.34
                             4494.00  4497.04  4566.51  4584.72  4639.41
                             4651.64  4674.90  4675.57  4682.19  4691.07
                             5085.75  5249.95

 Zero-point correction=                           0.251311 (Hartree/Particle)
 Thermal correction to Energy=                    0.266552
 Thermal correction to Enthalpy=                  0.267496
 Thermal correction to Gibbs Free Energy=         0.209473
 Sum of electronic and zero-point Energies=          -1123.207578
 Sum of electronic and thermal Energies=             -1123.192337
 Sum of electronic and thermal Enthalpies=           -1123.191393
 Sum of electronic and thermal Free Energies=        -1123.249415

                     E (Thermal)             CV                S
                      KCal/Mol        Cal/Mol-Kelvin    Cal/Mol-Kelvin
 Total                  167.264             60.203            122.120
 Electronic               0.000              0.000              0.000
 Translational            0.889              2.981             42.450
 Rotational               0.889              2.981             32.971
 Vibrational            165.486             54.241             46.698
 Vibration     1          0.595              1.979              4.972
 Vibration     2          0.598              1.969              4.199
 Vibration     3          0.602              1.956              3.644
 Vibration     4          0.611              1.925              2.967
 Vibration     5          0.617              1.908              2.735
 Vibration     6          0.625              1.881              2.454
 Vibration     7          0.631              1.862              2.289
 Vibration     8          0.644              1.821              2.019
 Vibration     9          0.658              1.776              1.789
 Vibration    10          0.665              1.756              1.703
 Vibration    11          0.684              1.698              1.491
 Vibration    12          0.693              1.674              1.417
 Vibration    13          0.706              1.634              1.308
 Vibration    14          0.716              1.607              1.240
 Vibration    15          0.725              1.582              1.182
 Vibration    16          0.740              1.541              1.094
 Vibration    17          0.769              1.462              0.948
 Vibration    18          0.800              1.382              0.825
 Vibration    19          0.825              1.322              0.744
 Vibration    20          0.832              1.304              0.721
 Vibration    21          0.863              1.233              0.640
 Vibration    22          0.892              1.169              0.572
 Vibration    23          0.899              1.154              0.558
 Vibration    24          0.916              1.116              0.522
 Vibration    25          0.927              1.094              0.502
 Vibration    26          0.963              1.023              0.443

 Optimization completed.
    -- Stationary point found.
 Normal termination of Gaussian 16 at Sat Jul  2 12:03:45 2022.
