 Gaussian 16, Revision C.01,
 Gaussian 16:  ES64L-G16RevC.01  3-Jul-2019

 --------------------------------------------------
 #M062X/gen 6D INT(grid=ultrafine) OPT Freq=noraman
 --------------------------------------------------

 --------------
 HA.4.a3b2.freq
 --------------
 Symbolic Z-matrix:
 Charge =  0 Multiplicity = 1

 SCF Done:  E(RM062X) =  -891.305075395     A.U. after   15 cycles
 SCF Done:  E(RM062X) =  -891.306779901     A.U. after   13 cycles
 SCF Done:  E(RM062X) =  -891.306914304     A.U. after   12 cycles
 SCF Done:  E(RM062X) =  -891.306926861     A.U. after   11 cycles
 SCF Done:  E(RM062X) =  -891.306930300     A.U. after   11 cycles
 SCF Done:  E(RM062X) =  -891.306931640     A.U. after   11 cycles
 SCF Done:  E(RM062X) =  -891.306931891     A.U. after   10 cycles
 Optimization completed.
    -- Stationary point found.
 Normal termination of Gaussian 16 at Fri May 20 19:35:18 2022.

 ------------------------------------------------------------------
 #N Geom=AllCheck Guess=TCheck SCRF=Check GenChk RM062X/ChkBas Freq
 ------------------------------------------------------------------

 Structure from the checkpoint file:  "/jobfs/40763188.gadi-pbs/Gau-530585.chk"
 --------------
 HA.4.a3b2.freq
 --------------
 Charge =  0 Multiplicity = 1

                         Standard orientation:
 ---------------------------------------------------------------------
 Center     Atomic      Atomic             Coordinates (Angstroms)
 Number     Number       Type             X           Y           Z
 ---------------------------------------------------------------------
      1          6           0       -0.110809    0.000009   -0.097925
      2          6           0        0.578448    1.211570   -0.069996
      3          1           0        0.027241    2.145970   -0.125943
      4          6           0        1.963772    1.210845   -0.002715
      5          1           0        2.506668    2.152180    0.014708
      6          6           0        2.675784   -0.000005    0.034098
      7          7           0        4.056012   -0.000014    0.152188
      8          6           0        1.963760   -1.210848   -0.002735
      9          1           0        2.506649   -2.152189    0.014672
     10          6           0        0.578438   -1.211559   -0.070017
     11          1           0        0.027224   -2.145955   -0.125984
     12         16           0       -1.885024    0.000015   -0.140763
     13          8           0       -2.310019    1.277333   -0.687740
     14          8           0       -2.310039   -1.277230   -0.687897
     15          7           0       -2.426497   -0.000093    1.439771
     16          1           0       -2.156976    0.843854    1.939150
     17          1           0       -2.157160   -0.844219    1.938948
     18          1           0        4.532127    0.842070   -0.143094
     19          1           0        4.532118   -0.842093   -0.143122
 ---------------------------------------------------------------------

 SCF Done:  E(RM062X) =  -891.306931891     A.U. after    1 cycles

 The electronic state is 1-A.
 Alpha  occ. eigenvalues --  -90.16270 -19.63932 -19.63930 -14.79821 -14.79729
 Alpha  occ. eigenvalues --  -10.62549 -10.58792 -10.58447 -10.58438 -10.57474
 Alpha  occ. eigenvalues --  -10.57474  -8.47220  -6.39439  -6.39392  -6.39293
 Alpha  occ. eigenvalues --   -1.24243  -1.12915  -1.05876  -1.02142  -0.97490
 Alpha  occ. eigenvalues --   -0.87186  -0.86446  -0.75756  -0.72828  -0.69189
 Alpha  occ. eigenvalues --   -0.64063  -0.61861  -0.61185  -0.61014  -0.57210
 Alpha  occ. eigenvalues --   -0.53767  -0.53431  -0.51502  -0.51147  -0.49390
 Alpha  occ. eigenvalues --   -0.47723  -0.42901  -0.42283  -0.41302  -0.39835
 Alpha  occ. eigenvalues --   -0.38035  -0.37892  -0.36921  -0.33330  -0.28444
 Alpha virt. eigenvalues --   -0.00539  -0.00405  -0.00327   0.01133   0.01919
 Alpha virt. eigenvalues --    0.03212   0.04612   0.05254   0.06762   0.07349
 Alpha virt. eigenvalues --    0.07433   0.07712   0.08525   0.09663   0.09815

 Mulliken charges:
               1
     1  C   -0.707003
     2  C   -0.443349
     3  H    0.253037
     4  C    0.117422
     5  H    0.205318
     6  C    0.265791
     7  N   -0.856508
     8  C    0.117431
     9  H    0.205318
    10  C   -0.443346
    11  H    0.253032
    12  S    1.416100
    13  O   -0.554393
    14  O   -0.554403
    15  N   -0.939039
    16  H    0.435941
    17  H    0.435938
    18  H    0.396357
    19  H    0.396356
 Sum of Mulliken charges =  -0.00000

 Dipole moment (field-independent basis, Debye):
    X=              6.8623    Y=             -0.0004    Z=              2.8414  Tot=              7.4273
 Quadrupole moment (field-independent basis, Debye-Ang):
   XX=            -69.9437   YY=            -68.0620   ZZ=            -72.6345
   XY=              0.0012   XZ=            -12.3237   YZ=             -0.0006

  Exact polarizability:     152.068       0.000     106.867      -0.744       0.000      72.491
 Approx polarizability:     168.196       0.000     150.141       2.714       0.001      92.028

                      1                      2                      3
                      A                      A                      A
 Frequencies --     46.8985                85.3182               167.4970
 Red. masses --      4.3820                 5.0489                 6.0994
 Frc consts  --      0.0057                 0.0217                 0.1008
 IR Inten    --      4.1464                 6.0396                 2.1566

                      4                      5                      6
                      A                      A                      A
 Frequencies --    201.8860               259.2116               289.5547
 Red. masses --      4.1473                 1.4125                 8.9202
 Frc consts  --      0.0996                 0.0559                 0.4406
 IR Inten    --      7.6353                15.3299                 0.1300

                      7                      8                      9
                      A                      A                      A
 Frequencies --    323.7635               354.1186               364.1250
 Red. masses --      1.0323                 4.9845                 3.4645
 Frc consts  --      0.0638                 0.3683                 0.2706
 IR Inten    --     16.9946                12.8270                 1.0981

                     10                     11                     12
                      A                      A                      A
 Frequencies --    420.7021               422.3901               465.6721
 Red. masses --      2.9118                 2.9061                 3.7753
 Frc consts  --      0.3036                 0.3055                 0.4823
 IR Inten    --      2.5153                 6.8630                 8.2263

                     13                     14                     15
                      A                      A                      A
 Frequencies --    480.4915               514.7651               548.4550
 Red. masses --      3.0458                 2.2212                 2.2963
 Frc consts  --      0.4143                 0.3468                 0.4070
 IR Inten    --     55.1595               390.0912                68.0497

                     16                     17                     18
                      A                      A                      A
 Frequencies --    556.5922               645.7327               649.9896
 Red. masses --      5.1404                 6.8832                 2.9268
 Frc consts  --      0.9383                 1.6910                 0.7285
 IR Inten    --     15.2840                 0.2484                82.8441

                     19                     20                     21
                      A                      A                      A
 Frequencies --    723.4078               725.6242               843.1146
 Red. masses --      3.5564                 2.9633                 2.6051
 Frc consts  --      1.0966                 0.9193                 1.0911
 IR Inten    --      2.2500               476.5263                51.7303

                     22                     23                     24
                      A                      A                      A
 Frequencies --    843.9362               857.9665               865.8328
 Red. masses --      1.2548                 2.2741                 3.9658
 Frc consts  --      0.5266                 0.9863                 1.7517
 IR Inten    --      0.3345                25.5012                51.8524

                     25                     26                     27
                      A                      A                      A
 Frequencies --    984.4968               997.2992              1026.5098
 Red. masses --      1.3056                 1.3405                 3.2623
 Frc consts  --      0.7455                 0.7855                 2.0253
 IR Inten    --      0.0107                 0.0319                 3.0104

                     28                     29                     30
                      A                      A                      A
 Frequencies --   1092.1694              1111.1161              1125.5409
 Red. masses --      1.3956                 1.2447                 3.4890
 Frc consts  --      0.9808                 0.9054                 2.6042
 IR Inten    --      0.7174                 3.3824                39.1429

                     31                     32                     33
                      A                      A                      A
 Frequencies --   1156.1664              1178.1562              1213.0707
 Red. masses --      1.1845                 5.0168                 1.2623
 Frc consts  --      0.9328                 4.1028                 1.0944
 IR Inten    --     10.8142               310.9168                 3.8932

                     34                     35                     36
                      A                      A                      A
 Frequencies --   1333.3283              1340.8603              1364.2803
 Red. masses --      1.4645                 3.0203                 4.9060
 Frc consts  --      1.5340                 3.1994                 5.3801
 IR Inten    --      4.7083                85.1912                22.1035

                     37                     38                     39
                      A                      A                      A
 Frequencies --   1392.1114              1486.7039              1558.7462
 Red. masses --      9.2775                 3.1894                 2.7074
 Frc consts  --     10.5933                 4.1534                 3.8758
 IR Inten    --    189.5445                 9.2185                64.6264

                     40                     41                     42
                      A                      A                      A
 Frequencies --   1622.7782              1661.3151              1678.7744
 Red. masses --      1.1091                 6.9006                 2.4114
 Frc consts  --      1.7208                11.2213                 4.0041
 IR Inten    --     52.2031                10.7694                32.5912

                     43                     44                     45
                      A                      A                      A
 Frequencies --   1701.1230              3217.3686              3217.4124
 Red. masses --      1.6418                 1.0893                 1.0898
 Frc consts  --      2.7993                 6.6434                 6.6468
 IR Inten    --    269.3021                10.7424                 8.1853

                     46                     47                     48
                      A                      A                      A
 Frequencies --   3239.8802              3240.6644              3536.7119
 Red. masses --      1.0936                 1.0946                 1.0472
 Frc consts  --      6.7632                 6.7730                 7.7174
 IR Inten    --      0.3802                 4.6034                34.8640

                     49                     50                     51
                      A                      A                      A
 Frequencies --   3597.8729              3653.5829              3702.0438
 Red. masses --      1.0483                 1.0992                 1.1001
 Frc consts  --      7.9953                 8.6452                 8.8830
 IR Inten    --     48.2555                38.1000                28.0999

 - Thermochemistry -
 -------------------
 Temperature   298.150 Kelvin.  Pressure   1.00000 Atm.
 Atom     1 has atomic number  6 and mass  12.00000

 Molecular mass:   172.03065 amu.
 Principal axes and moments of inertia in atomic units:
                           1         2         3
     Eigenvalues --   703.271133212.658213538.50035
           X            0.99993   0.00000  -0.01172
           Y           -0.00000   1.00000  -0.00000
           Z            0.01172   0.00000   0.99993
 This molecule is an asymmetric top.
 Rotational symmetry number  1.
 Warning -- assumption of classical behavior for rotation
           may cause significant error
 Rotational temperatures (Kelvin)      0.12316     0.02696     0.02448
 Rotational constants (GHZ):           2.56621     0.56176     0.51003
 Zero-point vibrational energy     383326.2 (Joules/Mol)
                                   91.61715 (Kcal/Mol)
 Warning -- explicit consideration of  16 degrees of freedom as
           vibrations may cause significant error
 Vibrational temperatures:     67.48   122.75   240.99   290.47   372.95
          (Kelvin)            416.60   465.82   509.50   523.89   605.30
                              607.73   670.00   691.32   740.63   789.10
                              800.81   929.07   935.19  1040.82  1044.01
                             1213.05  1214.24  1234.42  1245.74  1416.47
                             1434.89  1476.92  1571.39  1598.65  1619.40
                             1663.47  1695.10  1745.34  1918.36  1929.20
                             1962.90  2002.94  2139.04  2242.69  2334.82
                             2390.26  2415.38  2447.54  4629.08  4629.14
                             4661.47  4662.59  5088.54  5176.54  5256.69
                             5326.42

 Zero-point correction=                           0.146001 (Hartree/Particle)
 Thermal correction to Energy=                    0.156293
 Thermal correction to Enthalpy=                  0.157238
 Thermal correction to Gibbs Free Energy=         0.110008
 Sum of electronic and zero-point Energies=           -891.160931
 Sum of electronic and thermal Energies=              -891.150638
 Sum of electronic and thermal Enthalpies=            -891.149694
 Sum of electronic and thermal Free Energies=         -891.196924

                     E (Thermal)             CV                S
                      KCal/Mol        Cal/Mol-Kelvin    Cal/Mol-Kelvin
 Total                   98.076             39.842             99.404
 Electronic               0.000              0.000              0.000
 Translational            0.889              2.981             41.335
 Rotational               0.889              2.981             30.459
 Vibrational             96.298             33.881             27.610
 Vibration     1          0.595              1.979              4.944
 Vibration     2          0.601              1.959              3.765
 Vibration     3          0.624              1.882              2.463
 Vibration     4          0.639              1.837              2.116
 Vibration     5          0.668              1.747              1.667
 Vibration     6          0.686              1.693              1.477
 Vibration     7          0.708              1.628              1.291
 Vibration     8          0.730              1.567              1.148
 Vibration     9          0.738              1.546              1.104
 Vibration    10          0.783              1.425              0.890
 Vibration    11          0.785              1.422              0.884
 Vibration    12          0.823              1.326              0.750
 Vibration    13          0.837              1.293              0.709
 Vibration    14          0.870              1.217              0.622
 Vibration    15          0.904              1.143              0.547
 Vibration    16          0.912              1.125              0.531

 Optimization completed.
    -- Stationary point found.
 Normal termination of Gaussian 16 at Fri May 20 19:38:10 2022.
