 Gaussian 16, Revision C.01,
 Gaussian 16:  ES64L-G16RevC.01  3-Jul-2019

 --------------------------------------------------
 #M062X/gen 6D INT(grid=ultrafine) OPT Freq=noraman
 --------------------------------------------------

 ------------
 HA.5.a1.freq
 ------------
 Symbolic Z-matrix:
 Charge =  0 Multiplicity = 1

 SCF Done:  E(RM062X) =  -875.264491461     A.U. after   16 cycles
 SCF Done:  E(RM062X) =  -875.266026042     A.U. after   14 cycles
 SCF Done:  E(RM062X) =  -875.266143623     A.U. after   12 cycles
 SCF Done:  E(RM062X) =  -875.266152657     A.U. after   11 cycles
 SCF Done:  E(RM062X) =  -875.266154993     A.U. after   10 cycles
 SCF Done:  E(RM062X) =  -875.266155744     A.U. after   10 cycles
 SCF Done:  E(RM062X) =  -875.266155972     A.U. after   10 cycles
 SCF Done:  E(RM062X) =  -875.266156040     A.U. after    9 cycles
 SCF Done:  E(RM062X) =  -875.266156124     A.U. after    9 cycles
 SCF Done:  E(RM062X) =  -875.266156256     A.U. after    9 cycles
 SCF Done:  E(RM062X) =  -875.266157728     A.U. after   11 cycles
 SCF Done:  E(RM062X) =  -875.266158997     A.U. after   12 cycles
 SCF Done:  E(RM062X) =  -875.252476007     A.U. after   15 cycles
 SCF Done:  E(RM062X) =  -875.266138704     A.U. after   14 cycles
 SCF Done:  E(RM062X) =  -875.266161134     A.U. after   11 cycles
 SCF Done:  E(RM062X) =  -875.266161386     A.U. after   11 cycles
 SCF Done:  E(RM062X) =  -875.266160039     A.U. after   12 cycles
 SCF Done:  E(RM062X) =  -875.266161765     A.U. after   11 cycles
 SCF Done:  E(RM062X) =  -875.266161778     A.U. after    9 cycles
 Optimization completed.
    -- Stationary point found.
 Normal termination of Gaussian 16 at Fri May 20 19:44:09 2022.

 ------------------------------------------------------------------
 #N Geom=AllCheck Guess=TCheck SCRF=Check GenChk RM062X/ChkBas Freq
 ------------------------------------------------------------------

 Structure from the checkpoint file:  "/jobfs/40763683.gadi-pbs/Gau-2973388.chk"
 ------------
 HA.5.a1.freq
 ------------
 Charge =  0 Multiplicity = 1

                         Standard orientation:
 ---------------------------------------------------------------------
 Center     Atomic      Atomic             Coordinates (Angstroms)
 Number     Number       Type             X           Y           Z
 ---------------------------------------------------------------------
      1          6           0        0.121377    0.001392   -0.098042
      2          6           0       -0.559171    1.215001   -0.069618
      3          1           0       -0.004483    2.147403   -0.122723
      4          6           0       -1.949823    1.205320   -0.000280
      5          1           0       -2.490890    2.147988    0.017119
      6          6           0       -2.662578    0.002384    0.035582
      7          6           0       -4.169139   -0.002282    0.074583
      8          6           0       -1.949878   -1.202186   -0.001114
      9          1           0       -2.492269   -2.144395    0.015510
     10          6           0       -0.560612   -1.212876   -0.070655
     11          1           0       -0.006419   -2.145523   -0.125100
     12         16           0        1.904442    0.000436   -0.139779
     13          8           0        2.326509   -1.273627   -0.694104
     14          8           0        2.328268    1.280208   -0.679403
     15          7           0        2.430900   -0.009170    1.442848
     16          1           0        2.166321   -0.857631    1.936918
     17          1           0       -4.546715   -0.815701    0.700742
     18          1           0       -4.559748    0.941357    0.464348
     19          1           0        2.166315    0.833264    1.947128
     20          1           0       -4.578747   -0.142700   -0.932100
 ---------------------------------------------------------------------

 SCF Done:  E(RM062X) =  -875.266161778     A.U. after    1 cycles

 The electronic state is 1-A.
 Alpha  occ. eigenvalues --  -90.16825 -19.64503 -19.64501 -14.80402 -10.59843
 Alpha  occ. eigenvalues --  -10.59093 -10.58574 -10.58566 -10.57827 -10.57824
 Alpha  occ. eigenvalues --  -10.56425  -8.47783  -6.40002  -6.39952  -6.39857
 Alpha  occ. eigenvalues --   -1.24844  -1.13511  -1.02762  -0.99458  -0.90653
 Alpha  occ. eigenvalues --   -0.87184  -0.81776  -0.74528  -0.72116  -0.68414
 Alpha  occ. eigenvalues --   -0.64223  -0.62061  -0.58811  -0.56353  -0.55411
 Alpha  occ. eigenvalues --   -0.53385  -0.52441  -0.51525  -0.51125  -0.47234
 Alpha  occ. eigenvalues --   -0.45940  -0.44526  -0.42597  -0.41900  -0.40373
 Alpha  occ. eigenvalues --   -0.39499  -0.38576  -0.37247  -0.33347  -0.32149
 Alpha virt. eigenvalues --   -0.01831  -0.00656   0.00108   0.01517   0.02576
 Alpha virt. eigenvalues --    0.03159   0.04537   0.04699   0.05749   0.06025
 Alpha virt. eigenvalues --    0.06703   0.07287   0.08256   0.08855   0.09614

 Mulliken charges:
               1
     1  C   -1.276751
     2  C    0.133741
     3  H    0.253941
     4  C   -0.510184
     5  H    0.212721
     6  C    0.207948
     7  C   -0.584101
     8  C   -0.193249
     9  H    0.213642
    10  C    0.192957
    11  H    0.253592
    12  S    1.532598
    13  O   -0.534296
    14  O   -0.535635
    15  N   -0.935787
    16  H    0.438604
    17  H    0.224071
    18  H    0.218761
    19  H    0.438757
    20  H    0.248670
 Sum of Mulliken charges =  -0.00000

 Dipole moment (field-independent basis, Debye):
    X=             -5.5454    Y=             -0.0388    Z=              3.7238  Tot=              6.6798
 Quadrupole moment (field-independent basis, Debye-Ang):
   XX=            -77.3785   YY=            -70.1105   ZZ=            -71.3477
   XY=              0.0393   XZ=              8.0837   YZ=             -0.0462

  Exact polarizability:     147.421       0.255     110.315       1.577       0.002      75.969
 Approx polarizability:     158.485       0.382     156.430      -0.964       0.042      96.663

                      1                      2                      3
                      A                      A                      A
 Frequencies --     36.1188                47.3537                85.2147
 Red. masses --      1.0995                 3.5261                 4.2001
 Frc consts  --      0.0008                 0.0047                 0.0180
 IR Inten    --      1.1521                 1.2628                 4.0723

                      4                      5                      6
                      A                      A                      A
 Frequencies --    166.8915               199.9088               262.2849
 Red. masses --      5.5277                 3.7454                 1.4731
 Frc consts  --      0.0907                 0.0882                 0.0597
 IR Inten    --      2.8691                10.0476                13.9053

                      7                      8                      9
                      A                      A                      A
 Frequencies --    289.2440               337.7302               344.0524
 Red. masses --      7.8411                 2.7466                 4.2926
 Frc consts  --      0.3865                 0.1846                 0.2994
 IR Inten    --      1.3854                 0.4565                 6.1389

                     10                     11                     12
                      A                      A                      A
 Frequencies --    413.3788               416.8096               463.0310
 Red. masses --      2.8270                 2.9659                 3.6665
 Frc consts  --      0.2846                 0.3036                 0.4632
 IR Inten    --      6.3483                 0.8241                10.6883

                     13                     14                     15
                      A                      A                      A
 Frequencies --    467.1200               535.7903               552.2018
 Red. masses --      4.6094                 4.0436                 5.5698
 Frc consts  --      0.5926                 0.6839                 1.0007
 IR Inten    --      1.7994                57.4947                18.9398

                     16                     17                     18
                      A                      A                      A
 Frequencies --    635.1615               644.9111               709.0812
 Red. masses --      2.8263                 6.8905                 2.7932
 Frc consts  --      0.6718                 1.6885                 0.8275
 IR Inten    --     69.1079                 0.2157               462.3765

                     19                     20                     21
                      A                      A                      A
 Frequencies --    727.0004               823.7200               843.1116
 Red. masses --      3.4550                 3.5719                 1.5296
 Frc consts  --      1.0759                 1.4280                 0.6406
 IR Inten    --     23.7391                20.4697                52.4044

                     22                     23                     24
                      A                      A                      A
 Frequencies --    865.9686               872.2944               994.5146
 Red. masses --      3.5350                 1.2439                 1.2988
 Frc consts  --      1.5618                 0.5576                 0.7568
 IR Inten    --     38.4171                 0.0562                 0.2892

                     25                     26                     27
                      A                      A                      A
 Frequencies --   1009.5007              1019.6296              1036.2356
 Red. masses --      1.3672                 1.3885                 3.4401
 Frc consts  --      0.8209                 0.8505                 2.1764
 IR Inten    --      0.0602                 0.4300                 3.7682

                     28                     29                     30
                      A                      A                      A
 Frequencies --   1074.1616              1108.0561              1125.1737
 Red. masses --      1.5740                 1.2411                 3.5133
 Frc consts  --      1.0701                 0.8978                 2.6206
 IR Inten    --      9.1688                 1.6741                31.2445

                     31                     32                     33
                      A                      A                      A
 Frequencies --   1143.7150              1182.7731              1213.7672
 Red. masses --      1.2795                 6.8194                 1.1979
 Frc consts  --      0.9861                 5.6208                 1.0398
 IR Inten    --      6.6733               241.6184                 2.3041

                     34                     35                     36
                      A                      A                      A
 Frequencies --   1251.3280              1333.5834              1341.5559
 Red. masses --      2.8923                 1.2842                 8.2486
 Frc consts  --      2.6683                 1.3456                 8.7468
 IR Inten    --      1.2825                 3.4246                14.0470

                     37                     38                     39
                      A                      A                      A
 Frequencies --   1393.1268              1436.6220              1452.1117
 Red. masses --     11.8712                 1.2667                 2.6775
 Frc consts  --     13.5746                 1.5404                 3.3264
 IR Inten    --    194.7604                 1.6775                10.5335

                     40                     41                     42
                      A                      A                      A
 Frequencies --   1512.8201              1516.1669              1551.5863
 Red. masses --      1.0574                 1.1013                 2.5629
 Frc consts  --      1.4258                 1.4916                 3.6352
 IR Inten    --      9.7599                16.8258                 8.3654

                     43                     44                     45
                      A                      A                      A
 Frequencies --   1621.6776              1661.5713              1685.5626
 Red. masses --      1.1098                 6.7309                 6.1616
 Frc consts  --      1.7196                10.9487                10.3141
 IR Inten    --     52.7451                 1.2817                18.9477

                     46                     47                     48
                      A                      A                      A
 Frequencies --   3081.5079              3146.4873              3169.0270
 Red. masses --      1.0380                 1.0992                 1.1030
 Frc consts  --      5.8071                 6.4116                 6.5265
 IR Inten    --     18.1309                11.1191                10.9900

                     49                     50                     51
                      A                      A                      A
 Frequencies --   3214.9238              3217.4982              3240.3102
 Red. masses --      1.0898                 1.0897                 1.0935
 Frc consts  --      6.6366                 6.6467                 6.7645
 IR Inten    --      8.6704                 8.1399                 0.5851

                     52                     53                     54
                      A                      A                      A
 Frequencies --   3241.2500              3538.6847              3656.5096
 Red. masses --      1.0945                 1.0470                 1.0996
 Frc consts  --      6.7746                 7.7250                 8.6620
 IR Inten    --      3.4750                37.0002                40.4877

 - Thermochemistry -
 -------------------
 Temperature   298.150 Kelvin.  Pressure   1.00000 Atm.
 Atom     1 has atomic number  6 and mass  12.00000

 Molecular mass:   171.03540 amu.
 Principal axes and moments of inertia in atomic units:
                           1         2         3
     Eigenvalues --   707.633673223.309773543.44378
           X            0.99996   0.00003   0.00867
           Y           -0.00003   1.00000  -0.00036
           Z           -0.00867   0.00036   0.99996
 This molecule is an asymmetric top.
 Rotational symmetry number  1.
 Warning -- assumption of classical behavior for rotation
           may cause significant error
 Rotational temperatures (Kelvin)      0.12240     0.02687     0.02444
 Rotational constants (GHZ):           2.55039     0.55990     0.50932
 Zero-point vibrational energy     412172.2 (Joules/Mol)
                                   98.51153 (Kcal/Mol)
 Warning -- explicit consideration of  15 degrees of freedom as
           vibrations may cause significant error
 Vibrational temperatures:     51.97    68.13   122.60   240.12   287.62
          (Kelvin)            377.37   416.16   485.92   495.01   594.76
                              599.70   666.20   672.08   770.88   794.50
                              913.86   927.88  1020.21  1045.99  1185.15
                             1213.05  1245.94  1255.04  1430.88  1452.45
                             1467.02  1490.91  1545.48  1594.25  1618.87
                             1645.55  1701.75  1746.34  1800.38  1918.73
                             1930.20  2004.40  2066.98  2089.26  2176.61
                             2181.43  2232.39  2333.23  2390.63  2425.15
                             4433.60  4527.09  4559.52  4625.56  4629.26
                             4662.08  4663.44  5091.38  5260.90

 Zero-point correction=                           0.156988 (Hartree/Particle)
 Thermal correction to Energy=                    0.167682
 Thermal correction to Enthalpy=                  0.168626
 Thermal correction to Gibbs Free Energy=         0.119499
 Sum of electronic and zero-point Energies=           -875.109174
 Sum of electronic and thermal Energies=              -875.098480
 Sum of electronic and thermal Enthalpies=            -875.097536
 Sum of electronic and thermal Free Energies=         -875.146662

                     E (Thermal)             CV                S
                      KCal/Mol        Cal/Mol-Kelvin    Cal/Mol-Kelvin
 Total                  105.222             39.830            103.396
 Electronic               0.000              0.000              0.000
 Translational            0.889              2.981             41.318
 Rotational               0.889              2.981             30.470
 Vibrational            103.445             33.869             31.608
 Vibration     1          0.594              1.982              5.461
 Vibration     2          0.595              1.979              4.925
 Vibration     3          0.601              1.959              3.767
 Vibration     4          0.624              1.883              2.470
 Vibration     5          0.638              1.840              2.134
 Vibration     6          0.670              1.742              1.647
 Vibration     7          0.686              1.694              1.478
 Vibration     8          0.718              1.600              1.223
 Vibration     9          0.723              1.587              1.193
 Vibration    10          0.777              1.441              0.915
 Vibration    11          0.780              1.434              0.903
 Vibration    12          0.821              1.332              0.757
 Vibration    13          0.824              1.323              0.746
 Vibration    14          0.891              1.171              0.574
 Vibration    15          0.908              1.135              0.540

                           ! Non-Optimized Parameters !
 Normal termination of Gaussian 16 at Fri May 20 19:47:32 2022.
