 Gaussian 16, Revision C.01,
 Gaussian 16:  ES64L-G16RevC.01  3-Jul-2019

 --------------------------------------------------
 #M062X/gen 6D INT(grid=ultrafine) OPT Freq=noraman
 --------------------------------------------------

 ------------
 HA.6.a3.freq
 ------------
 Symbolic Z-matrix:
 Charge =  0 Multiplicity = 1

 SCF Done:  E(RM062X) =  -935.178591300     A.U. after   15 cycles
 SCF Done:  E(RM062X) =  -935.180156287     A.U. after   13 cycles
 SCF Done:  E(RM062X) =  -935.180277466     A.U. after   12 cycles
 SCF Done:  E(RM062X) =  -935.180288887     A.U. after   11 cycles
 SCF Done:  E(RM062X) =  -935.180292299     A.U. after   10 cycles
 SCF Done:  E(RM062X) =  -935.180293513     A.U. after   10 cycles
 SCF Done:  E(RM062X) =  -935.180293704     A.U. after    9 cycles
 Optimization completed.
    -- Stationary point found.
 Normal termination of Gaussian 16 at Fri May 20 19:38:41 2022.

 ------------------------------------------------------------------
 #N Geom=AllCheck Guess=TCheck SCRF=Check GenChk RM062X/ChkBas Freq
 ------------------------------------------------------------------

 Structure from the checkpoint file:  "/jobfs/40763998.gadi-pbs/Gau-2667090.chk"
 ------------
 HA.6.a3.freq
 ------------
 Charge =  0 Multiplicity = 1

                         Standard orientation:
 ---------------------------------------------------------------------
 Center     Atomic      Atomic             Coordinates (Angstroms)
 Number     Number       Type             X           Y           Z
 ---------------------------------------------------------------------
      1          6           0       -0.082520    0.000000   -0.098145
      2          6           0        0.596024    1.216988   -0.073193
      3          1           0        0.038816    2.147379   -0.130000
      4          6           0        1.985843    1.220072   -0.006377
      5          1           0        2.557597    2.141548    0.006344
      6          6           0        2.647508    0.000000    0.030416
      7          6           0        1.985843   -1.220072   -0.006377
      8          1           0        2.557598   -2.141547    0.006343
      9          6           0        0.596025   -1.216988   -0.073193
     10          1           0        0.038815   -2.147378   -0.130001
     11         16           0       -1.866735    0.000000   -0.138587
     12          8           0       -2.284035    1.277580   -0.686618
     13          8           0       -2.284035   -1.277580   -0.686617
     14          7           0       -2.394757    0.000000    1.440353
     15          1           0       -2.143409    0.847172    1.942949
     16          1           0       -2.143415   -0.847175    1.942946
     17          9           0        3.988587   -0.000001    0.093714
 ---------------------------------------------------------------------

 SCF Done:  E(RM062X) =  -935.180293704     A.U. after    1 cycles

 The electronic state is 1-A.
 Alpha  occ. eigenvalues --  -90.17696 -25.30270 -19.65292 -19.65291 -14.81139
 Alpha  occ. eigenvalues --  -10.67388 -10.60955 -10.60205 -10.60201 -10.59388
 Alpha  occ. eigenvalues --  -10.59387  -8.48638  -6.40857  -6.40807  -6.40719
 Alpha  occ. eigenvalues --   -1.39857  -1.25685  -1.14346  -1.03539  -1.00843
 Alpha  occ. eigenvalues --   -0.89617  -0.89217  -0.77731  -0.74819  -0.71181
 Alpha  occ. eigenvalues --   -0.66131  -0.64355  -0.62963  -0.60698  -0.59106
 Alpha  occ. eigenvalues --   -0.58848  -0.55612  -0.53774  -0.53456  -0.51039
 Alpha  occ. eigenvalues --   -0.50993  -0.47634  -0.44400  -0.42731  -0.41191
 Alpha  occ. eigenvalues --   -0.40368  -0.39384  -0.38284  -0.35001  -0.33278
 Alpha virt. eigenvalues --   -0.02262  -0.01956  -0.00363   0.01895   0.02324
 Alpha virt. eigenvalues --    0.03189   0.04746   0.04853   0.06045   0.07013
 Alpha virt. eigenvalues --    0.07377   0.07535   0.08014   0.09063   0.09819

 Mulliken charges:
               1
     1  C   -0.694468
     2  C   -0.147363
     3  H    0.262655
     4  C    0.026568
     5  H    0.242645
     6  C    0.046735
     7  C    0.026567
     8  H    0.242645
     9  C   -0.147369
    10  H    0.262655
    11  S    1.366324
    12  O   -0.551731
    13  O   -0.551732
    14  N   -0.941222
    15  H    0.438094
    16  H    0.438094
    17  F   -0.319095
 Sum of Mulliken charges =  -0.00000

 Dipole moment (field-independent basis, Debye):
    X=              3.1734    Y=             -0.0000    Z=              3.7249  Tot=              4.8934
 Quadrupole moment (field-independent basis, Debye-Ang):
   XX=            -86.6666   YY=            -65.6817   ZZ=            -68.2985
   XY=              0.0000   XZ=             -8.3035   YZ=             -0.0000

  Exact polarizability:     125.602       0.000     101.205      -1.283       0.000      66.338
 Approx polarizability:     144.003       0.000     143.131       1.445       0.000      84.264

                      1                      2                      3
                      A                      A                      A
 Frequencies --     47.1421                88.5891               170.1631
 Red. masses --      4.5997                 7.2626                 7.7850
 Frc consts  --      0.0060                 0.0336                 0.1328
 IR Inten    --      2.1518                 7.3491                 5.7685

                      4                      5                      6
                      A                      A                      A
 Frequencies --    212.9793               266.8913               285.8779
 Red. masses --      5.2818                 1.4819                11.9650
 Frc consts  --      0.1412                 0.0622                 0.5761
 IR Inten    --      7.7040                10.4972                 0.2907

                      7                      8                      9
                      A                      A                      A
 Frequencies --    365.1629               375.1814               425.8594
 Red. masses --      5.9604                 4.7946                 3.0197
 Frc consts  --      0.4683                 0.3976                 0.3227
 IR Inten    --      6.1322                 6.4972                 0.0338

                     10                     11                     12
                      A                      A                      A
 Frequencies --    432.1141               469.4017               485.4974
 Red. masses --      3.1837                 3.9658                 5.9114
 Frc consts  --      0.3503                 0.5148                 0.8209
 IR Inten    --      3.0823                12.8433                 5.7196

                     13                     14                     15
                      A                      A                      A
 Frequencies --    538.2152               555.0719               627.3496
 Red. masses --      4.0604                 4.5985                 2.5183
 Frc consts  --      0.6930                 0.8348                 0.5840
 IR Inten    --     54.0977                32.6878               171.4509

                     16                     17                     18
                      A                      A                      A
 Frequencies --    639.1066               703.7116               724.0135
 Red. masses --      7.1970                 3.5311                 3.9614
 Frc consts  --      1.7320                 1.0303                 1.2235
 IR Inten    --      0.0318               332.7989                 2.6046

                     19                     20                     21
                      A                      A                      A
 Frequencies --    847.2354               851.9618               867.3475
 Red. masses --      4.7239                 1.2386                 2.4939
 Frc consts  --      1.9979                 0.5297                 1.1054
 IR Inten    --     39.6743                 0.1162               120.9290

                     22                     23                     24
                      A                      A                      A
 Frequencies --    874.4276               988.6040              1005.2107
 Red. masses --      2.3678                 1.3154                 1.3448
 Frc consts  --      1.0667                 0.7574                 0.8006
 IR Inten    --     12.4003                 0.2472                 0.0451

                     25                     26                     27
                      A                      A                      A
 Frequencies --   1035.5714              1104.8588              1121.3932
 Red. masses --      2.8457                 1.2422                 3.7444
 Frc consts  --      1.7980                 0.8934                 2.7742
 IR Inten    --      4.3385                 0.8005                31.2634

                     28                     29                     30
                      A                      A                      A
 Frequencies --   1125.7569              1181.0912              1187.5738
 Red. masses --      1.2460                 2.1899                 1.9281
 Frc consts  --      0.9304                 1.7999                 1.6022
 IR Inten    --      8.5795               199.0652                59.1144

                     31                     32                     33
                      A                      A                      A
 Frequencies --   1299.6925              1316.2616              1345.3804
 Red. masses --      4.0901                 1.2705                10.6567
 Frc consts  --      4.0707                 1.2969                11.3648
 IR Inten    --    117.5102                11.4567                10.9835

                     34                     35                     36
                      A                      A                      A
 Frequencies --   1396.3356              1458.3231              1555.3186
 Red. masses --     11.9509                 3.5285                 2.8063
 Frc consts  --     13.7287                 4.4213                 3.9996
 IR Inten    --    190.4744                11.8091                85.5089

                     37                     38                     39
                      A                      A                      A
 Frequencies --   1620.0987              1681.1043              1682.7545
 Red. masses --      1.1115                 7.9162                 6.3474
 Frc consts  --      1.7188                13.1812                10.5897
 IR Inten    --     54.7248                13.2863                85.5963

                     40                     41                     42
                      A                      A                      A
 Frequencies --   3241.5433              3242.5943              3258.2815
 Red. masses --      1.0901                 1.0902                 1.0952
 Frc consts  --      6.7488                 6.7537                 6.8505
 IR Inten    --      0.8698                 0.6717                 0.3754

                     43                     44                     45
                      A                      A                      A
 Frequencies --   3258.6579              3542.0665              3661.1429
 Red. masses --      1.0957                 1.0469                 1.1001
 Frc consts  --      6.8554                 7.7384                 8.6881
 IR Inten    --      3.3594                40.0019                43.9485

 - Thermochemistry -
 -------------------
 Temperature   298.150 Kelvin.  Pressure   1.00000 Atm.
 Atom     1 has atomic number  6 and mass  12.00000

 Molecular mass:   175.01033 amu.
 Principal axes and moments of inertia in atomic units:
                           1         2         3
     Eigenvalues --   700.365703297.326183621.64803
           X            0.99994   0.00000  -0.01057
           Y           -0.00000   1.00000   0.00000
           Z            0.01057  -0.00000   0.99994
 This molecule is an asymmetric top.
 Rotational symmetry number  1.
 Warning -- assumption of classical behavior for rotation
           may cause significant error
 Rotational temperatures (Kelvin)      0.12367     0.02627     0.02392
 Rotational constants (GHZ):           2.57686     0.54733     0.49832
 Zero-point vibrational energy     317984.8 (Joules/Mol)
                                   76.00020 (Kcal/Mol)
 Warning -- explicit consideration of  14 degrees of freedom as
           vibrations may cause significant error
 Vibrational temperatures:     67.83   127.46   244.83   306.43   384.00
          (Kelvin)            411.31   525.39   539.80   612.72   621.72
                              675.36   698.52   774.37   798.62   902.62
                              919.53  1012.48  1041.69  1218.98  1225.78
                             1247.92  1258.11  1422.38  1446.27  1489.96
                             1589.65  1613.43  1619.71  1699.33  1708.65
                             1869.97  1893.81  1935.70  2009.02  2098.20
                             2237.76  2330.96  2418.73  2421.11  4663.86
                             4665.37  4687.94  4688.48  5096.24  5267.57

 Zero-point correction=                           0.121114 (Hartree/Particle)
 Thermal correction to Energy=                    0.130724
 Thermal correction to Enthalpy=                  0.131668
 Thermal correction to Gibbs Free Energy=         0.085487
 Sum of electronic and zero-point Energies=           -935.059180
 Sum of electronic and thermal Energies=              -935.049570
 Sum of electronic and thermal Enthalpies=            -935.048625
 Sum of electronic and thermal Free Energies=         -935.094807

                     E (Thermal)             CV                S
                      KCal/Mol        Cal/Mol-Kelvin    Cal/Mol-Kelvin
 Total                   82.031             36.692             97.197
 Electronic               0.000              0.000              0.000
 Translational            0.889              2.981             41.386
 Rotational               0.889              2.981             30.504
 Vibrational             80.253             30.730             25.306
 Vibration     1          0.595              1.979              4.934
 Vibration     2          0.601              1.957              3.691
 Vibration     3          0.625              1.879              2.434
 Vibration     4          0.644              1.821              2.018
 Vibration     5          0.672              1.734              1.616
 Vibration     6          0.684              1.700              1.498
 Vibration     7          0.738              1.544              1.100
 Vibration     8          0.746              1.523              1.059
 Vibration     9          0.788              1.414              0.872
 Vibration    10          0.793              1.400              0.852
 Vibration    11          0.827              1.318              0.739
 Vibration    12          0.842              1.282              0.695
 Vibration    13          0.893              1.166              0.569
 Vibration    14          0.911              1.129              0.534

 Optimization completed.
    -- Stationary point found.
 Normal termination of Gaussian 16 at Fri May 20 19:41:25 2022.
