 Gaussian 16, Revision C.01,
 Gaussian 16:  ES64L-G16RevC.01  3-Jul-2019

 --------------------------------------------------
 #M062X/gen 6D INT(grid=ultrafine) OPT Freq=noraman
 --------------------------------------------------

 ------------
 HA.7.a1.freq
 ------------
 Symbolic Z-matrix:
 Charge =  0 Multiplicity = 1

 SCF Done:  E(RM062X) =  -1034.37665999     A.U. after   15 cycles
 SCF Done:  E(RM062X) =  -1034.37819027     A.U. after   13 cycles
 SCF Done:  E(RM062X) =  -1034.37834786     A.U. after   13 cycles
 SCF Done:  E(RM062X) =  -1034.37844601     A.U. after   13 cycles
 SCF Done:  E(RM062X) =  -1034.37846867     A.U. after   11 cycles
 SCF Done:  E(RM062X) =  -1034.37848274     A.U. after   12 cycles
 SCF Done:  E(RM062X) =  -1034.37848520     A.U. after   11 cycles
 SCF Done:  E(RM062X) =  -1034.37848719     A.U. after   11 cycles
 SCF Done:  E(RM062X) =  -1034.37848751     A.U. after   11 cycles
 SCF Done:  E(RM062X) =  -1034.37848758     A.U. after    9 cycles
 Optimization completed.
    -- Stationary point found.
 Normal termination of Gaussian 16 at Fri May 20 19:47:46 2022.

 ------------------------------------------------------------------
 #N Geom=AllCheck Guess=TCheck SCRF=Check GenChk RM062X/ChkBas Freq
 ------------------------------------------------------------------

 Structure from the checkpoint file:  "/jobfs/40765441.gadi-pbs/Gau-2671219.chk"
 ------------
 HA.7.a1.freq
 ------------
 Charge =  0 Multiplicity = 1

                         Standard orientation:
 ---------------------------------------------------------------------
 Center     Atomic      Atomic             Coordinates (Angstroms)
 Number     Number       Type             X           Y           Z
 ---------------------------------------------------------------------
      1          6           0       -0.235027    0.055759   -0.009255
      2          6           0       -1.078446    1.168196    0.012062
      3          9           0       -0.568512    2.397540   -0.008221
      4          6           0       -2.462065    1.041120    0.043602
      5          1           0       -3.065660    1.941570    0.059031
      6          6           0       -3.027233   -0.228764    0.045543
      7          6           0       -2.223807   -1.367804    0.014280
      8          1           0       -2.635159   -2.370666    0.008961
      9          6           0       -0.853228   -1.195445   -0.019032
     10          9           0       -0.070345   -2.290076   -0.046287
     11         16           0        1.560109    0.160424   -0.111858
     12          8           0        1.930879   -0.449407   -1.370509
     13          8           0        1.940236    1.504896    0.257911
     14          7           0        2.146094   -0.824231    1.079503
     15          1           0        1.919212   -1.806164    0.949415
     16          1           0       -4.106790   -0.335241    0.067441
     17          1           0        1.963615   -0.476133    2.016521
 ---------------------------------------------------------------------

 SCF Done:  E(RM062X) =  -1034.37848758     A.U. after    1 cycles

 The electronic state is 1-A.
 Alpha  occ. eigenvalues --  -90.18504 -25.32004 -25.30383 -19.65397 -19.65382
 Alpha  occ. eigenvalues --  -14.81141 -10.68948 -10.68810 -10.62065 -10.60691
 Alpha  occ. eigenvalues --  -10.59638 -10.59399  -8.49302  -6.41520  -6.41462
 Alpha  occ. eigenvalues --   -6.41434  -1.41571  -1.40404  -1.26065  -1.14562
 Alpha  occ. eigenvalues --   -1.03864  -1.01650  -0.90979  -0.89113  -0.78766
 Alpha  occ. eigenvalues --   -0.75562  -0.73292  -0.68326  -0.65282  -0.64762
 Alpha  occ. eigenvalues --   -0.62747  -0.61011  -0.60131  -0.59609  -0.58850
 Alpha  occ. eigenvalues --   -0.57440  -0.56285  -0.53658  -0.50037  -0.48629
 Alpha  occ. eigenvalues --   -0.47901  -0.46782  -0.42872  -0.41637  -0.40354
 Alpha  occ. eigenvalues --   -0.39386  -0.38602  -0.34683  -0.33656
 Alpha virt. eigenvalues --   -0.03114  -0.00644  -0.00061   0.00849   0.02396
 Alpha virt. eigenvalues --    0.03094   0.04019   0.04926   0.05016   0.06739
 Alpha virt. eigenvalues --    0.07295   0.07822   0.08125   0.08816   0.09413

 Mulliken charges:
               1
     1  C   -0.644790
     2  C    0.003430
     3  F   -0.288657
     4  C    0.046167
     5  H    0.242754
     6  C   -0.229054
     7  C    0.064767
     8  H    0.242885
     9  C    0.457775
    10  F   -0.339810
    11  S    1.326712
    12  O   -0.490032
    13  O   -0.544242
    14  N   -0.980106
    15  H    0.452948
    16  H    0.233189
    17  H    0.446064
 Sum of Mulliken charges =  -0.00000

 Dipole moment (field-independent basis, Debye):
    X=             -5.4679    Y=             -2.6116    Z=              3.1611  Tot=              6.8345
 Quadrupole moment (field-independent basis, Debye-Ang):
   XX=            -71.2159   YY=            -76.3721   ZZ=            -74.9871
   XY=             -3.8004   XZ=              5.8401   YZ=             -3.6446

  Exact polarizability:     124.944      -0.225     103.857       0.773       0.572      66.575
 Approx polarizability:     142.113      -0.020     144.847      -1.016       4.170      87.942

                      1                      2                      3
                      A                      A                      A
 Frequencies --     47.9630                87.1718               177.9145
 Red. masses --      8.3929                 7.0480                10.5834
 Frc consts  --      0.0114                 0.0316                 0.1974
 IR Inten    --      3.5445                 1.7948                 0.2325

                      4                      5                      6
                      A                      A                      A
 Frequencies --    201.2897               244.5325               252.1583
 Red. masses --      7.2518                 4.8372                 5.5731
 Frc consts  --      0.1731                 0.1704                 0.2088
 IR Inten    --      9.2563                 0.6086                 8.0479

                      7                      8                      9
                      A                      A                      A
 Frequencies --    273.1141               314.4067               369.7079
 Red. masses --      7.7385                 1.9791                 3.8816
 Frc consts  --      0.3401                 0.1153                 0.3126
 IR Inten    --      3.5871                14.6479                 2.9639

                     10                     11                     12
                      A                      A                      A
 Frequencies --    383.1775               459.7526               472.7517
 Red. masses --     10.8297                 2.2372                 7.2652
 Frc consts  --      0.9368                 0.2786                 0.9567
 IR Inten    --      3.8025                20.2651                18.4835

                     13                     14                     15
                      A                      A                      A
 Frequencies --    519.8206               535.5855               550.0771
 Red. masses --      7.4320                 5.7729                 4.8085
 Frc consts  --      1.1832                 0.9757                 0.8572
 IR Inten    --      6.0049                24.6708                12.8084

                     16                     17                     18
                      A                      A                      A
 Frequencies --    565.7838               599.6200               611.8602
 Red. masses --      6.4234                 2.5480                 4.6816
 Frc consts  --      1.2115                 0.5398                 1.0326
 IR Inten    --      2.0744               130.1411                 2.7886

                     19                     20                     21
                      A                      A                      A
 Frequencies --    675.3959               734.0262               785.1059
 Red. masses --      3.4874                 2.7985                 7.1722
 Frc consts  --      0.9373                 0.8884                 2.6047
 IR Inten    --    374.4880                 6.6611                42.6637

                     22                     23                     24
                      A                      A                      A
 Frequencies --    815.5154               873.6973               915.1969
 Red. masses --      1.6958                 4.2643                 1.4158
 Frc consts  --      0.6645                 1.9179                 0.6987
 IR Inten    --     68.3900                60.7962                 0.0110

                     25                     26                     27
                      A                      A                      A
 Frequencies --   1007.8616              1050.8134              1081.6823
 Red. masses --      1.3049                 4.6926                 3.2328
 Frc consts  --      0.7810                 3.0529                 2.2286
 IR Inten    --      0.5346                67.3218                 3.1065

                     28                     29                     30
                      A                      A                      A
 Frequencies --   1110.2876              1135.1253              1184.3610
 Red. masses --      1.2525                 2.0836                 1.1882
 Frc consts  --      0.9097                 1.5818                 0.9820
 IR Inten    --      4.3060                18.4161                 1.1560

                     31                     32                     33
                      A                      A                      A
 Frequencies --   1190.2068              1281.3696              1334.4039
 Red. masses --     10.5580                 1.9170                 7.0908
 Frc consts  --      8.8120                 1.8545                 7.4391
 IR Inten    --    199.5328                40.6009                 8.6224

                     34                     35                     36
                      A                      A                      A
 Frequencies --   1358.3510              1414.4977              1510.8928
 Red. masses --      5.7906                11.7002                 4.1037
 Frc consts  --      6.2950                13.7927                 5.5194
 IR Inten    --     29.2508               196.2812                14.2258

                     37                     38                     39
                      A                      A                      A
 Frequencies --   1535.3691              1618.7305              1672.9682
 Red. masses --      3.4969                 1.1147                 7.6715
 Frc consts  --      4.8569                 1.7209                12.6505
 IR Inten    --    184.3224                55.6216               118.7427

                     40                     41                     42
                      A                      A                      A
 Frequencies --   1699.0997              3243.0800              3260.1095
 Red. masses --      8.0338                 1.0891                 1.0931
 Frc consts  --     13.6650                 6.7486                 6.8451
 IR Inten    --     96.7972                 2.8679                 0.0179

                     43                     44                     45
                      A                      A                      A
 Frequencies --   3264.2355              3552.0835              3673.7666
 Red. masses --      1.0974                 1.0461                 1.1012
 Frc consts  --      6.8895                 7.7768                 8.7567
 IR Inten    --      0.0231                47.0085                62.5276

 - Thermochemistry -
 -------------------
 Temperature   298.150 Kelvin.  Pressure   1.00000 Atm.
 Atom     1 has atomic number  6 and mass  12.00000

 Molecular mass:   193.00091 amu.
 Principal axes and moments of inertia in atomic units:
                           1         2         3
     Eigenvalues --  1407.549032241.206073271.56159
           X            0.99993  -0.00580   0.00988
           Y            0.00589   0.99994  -0.00945
           Z           -0.00983   0.00951   0.99991
 This molecule is an asymmetric top.
 Rotational symmetry number  1.
 Warning -- assumption of classical behavior for rotation
           may cause significant error
 Rotational temperatures (Kelvin)      0.06154     0.03865     0.02647
 Rotational constants (GHZ):           1.28219     0.80525     0.55165
 Zero-point vibrational energy     296942.6 (Joules/Mol)
                                   70.97098 (Kcal/Mol)
 Warning -- explicit consideration of  18 degrees of freedom as
           vibrations may cause significant error
 Vibrational temperatures:     69.01   125.42   255.98   289.61   351.83
          (Kelvin)            362.80   392.95   452.36   531.93   551.31
                              661.48   680.18   747.91   770.59   791.44
                              814.04   862.72   880.33   971.74  1056.10
                             1129.59  1173.34  1257.06  1316.76  1450.09
                             1511.89  1556.30  1597.46  1633.19  1704.03
                             1712.44  1843.61  1919.91  1954.36  2035.15
                             2173.84  2209.05  2328.99  2407.03  2444.63
                             4666.07  4690.57  4696.51  5110.66  5285.73

 Zero-point correction=                           0.113099 (Hartree/Particle)
 Thermal correction to Energy=                    0.123497
 Thermal correction to Enthalpy=                  0.124441
 Thermal correction to Gibbs Free Energy=         0.076699
 Sum of electronic and zero-point Energies=          -1034.265388
 Sum of electronic and thermal Energies=             -1034.254990
 Sum of electronic and thermal Enthalpies=           -1034.254046
 Sum of electronic and thermal Free Energies=        -1034.301789

                     E (Thermal)             CV                S
                      KCal/Mol        Cal/Mol-Kelvin    Cal/Mol-Kelvin
 Total                   77.496             39.533            100.483
 Electronic               0.000              0.000              0.000
 Translational            0.889              2.981             41.678
 Rotational               0.889              2.981             30.713
 Vibrational             75.718             33.572             28.092
 Vibration     1          0.595              1.978              4.900
 Vibration     2          0.601              1.958              3.723
 Vibration     3          0.628              1.870              2.350
 Vibration     4          0.638              1.838              2.121
 Vibration     5          0.660              1.772              1.770
 Vibration     6          0.664              1.759              1.715
 Vibration     7          0.676              1.723              1.576
 Vibration     8          0.702              1.646              1.339
 Vibration     9          0.742              1.534              1.081
 Vibration    10          0.752              1.506              1.027
 Vibration    11          0.818              1.339              0.767
 Vibration    12          0.830              1.311              0.730
 Vibration    13          0.875              1.206              0.610
 Vibration    14          0.891              1.171              0.575
 Vibration    15          0.905              1.140              0.544
 Vibration    16          0.922              1.105              0.512
 Vibration    17          0.958              1.033              0.450
 Vibration    18          0.971              1.007              0.430

 Optimization completed.
    -- Stationary point found.
 Normal termination of Gaussian 16 at Fri May 20 19:51:14 2022.
