 Gaussian 16, Revision C.01,
 Gaussian 16:  ES64L-G16RevC.01  3-Jul-2019

 --------------------------------------------------
 #M062X/gen 6D INT(grid=ultrafine) OPT Freq=noraman
 --------------------------------------------------

 ------------
 HA.8.a3.freq
 ------------
 Symbolic Z-matrix:
 Charge =  0 Multiplicity = 1

 SCF Done:  E(RM062X) =  -1331.97603665     A.U. after   15 cycles
 SCF Done:  E(RM062X) =  -1331.97744707     A.U. after   13 cycles
 SCF Done:  E(RM062X) =  -1331.97761725     A.U. after   12 cycles
 SCF Done:  E(RM062X) =  -1331.97768624     A.U. after   13 cycles
 SCF Done:  E(RM062X) =  -1331.97770899     A.U. after   12 cycles
 SCF Done:  E(RM062X) =  -1331.97772314     A.U. after   13 cycles
 SCF Done:  E(RM062X) =  -1331.97772534     A.U. after   11 cycles
 SCF Done:  E(RM062X) =  -1331.97772693     A.U. after   11 cycles
 SCF Done:  E(RM062X) =  -1331.97772703     A.U. after    9 cycles
 SCF Done:  E(RM062X) =  -1331.97772705     A.U. after    9 cycles
 Optimization completed.
    -- Stationary point found.
 Normal termination of Gaussian 16 at Fri May 20 19:52:18 2022.

 ------------------------------------------------------------------
 #N Geom=AllCheck Guess=TCheck SCRF=Check GenChk RM062X/ChkBas Freq
 ------------------------------------------------------------------

 Structure from the checkpoint file:  "/jobfs/40765789.gadi-pbs/Gau-3910319.chk"
 ------------
 HA.8.a3.freq
 ------------
 Charge =  0 Multiplicity = 1

                         Standard orientation:
 ---------------------------------------------------------------------
 Center     Atomic      Atomic             Coordinates (Angstroms)
 Number     Number       Type             X           Y           Z
 ---------------------------------------------------------------------
      1          6           0       -0.447948    0.092442   -0.013936
      2          6           0        0.339723    1.242562   -0.002578
      3          9           0       -0.184056    2.457935   -0.018214
      4          6           0        1.729577    1.151410    0.015721
      5          9           0        2.468629    2.254376    0.027996
      6          6           0        2.346793   -0.091127    0.015881
      7          6           0        1.578342   -1.250478   -0.002890
      8          9           0        2.167190   -2.440944    0.000314
      9          6           0        0.198100   -1.142802   -0.025078
     10          9           0       -0.517686   -2.271333   -0.038651
     11         16           0       -2.253121    0.133154   -0.108247
     12          8           0       -2.660889    1.472068    0.244425
     13          8           0       -2.595954   -0.505872   -1.358105
     14          7           0       -2.795576   -0.851984    1.093849
     15          1           0       -2.642008   -0.491724    2.031082
     16          9           0        3.668253   -0.175704    0.035260
     17          1           0       -2.572768   -1.835428    0.970298
 ---------------------------------------------------------------------

 SCF Done:  E(RM062X) =  -1331.97772705     A.U. after    1 cycles

 The electronic state is 1-A.
 Alpha  occ. eigenvalues --  -90.20379 -25.34438 -25.34121 -25.33753 -25.33382
 Alpha  occ. eigenvalues --  -25.32824 -19.67144 -19.67118 -14.82800 -10.71488
 Alpha  occ. eigenvalues --  -10.71391 -10.71373 -10.70644 -10.70405 -10.64570
 Alpha  occ. eigenvalues --   -8.51144  -6.43359  -6.43302  -6.43289  -1.44950
 Alpha  occ. eigenvalues --   -1.44333  -1.43577  -1.42776  -1.42121  -1.27903
 Alpha  occ. eigenvalues --   -1.16398  -1.05714  -1.05044  -0.93741  -0.92195
 Alpha  occ. eigenvalues --   -0.82431  -0.79804  -0.76323  -0.72412  -0.72387
 Alpha  occ. eigenvalues --   -0.70529  -0.66851  -0.66671  -0.65923  -0.65661
 Alpha  occ. eigenvalues --   -0.65005  -0.63946  -0.63194  -0.62161  -0.60457
 Alpha  occ. eigenvalues --   -0.60074  -0.59526  -0.57878  -0.57347  -0.55483
 Alpha  occ. eigenvalues --   -0.53758  -0.53294  -0.50016  -0.47600  -0.44666
 Alpha  occ. eigenvalues --   -0.43113  -0.41798  -0.41146  -0.40595  -0.35915
 Alpha  occ. eigenvalues --   -0.34900
 Alpha virt. eigenvalues --   -0.04437  -0.03110  -0.01760  -0.00045   0.01537
 Alpha virt. eigenvalues --    0.02939   0.03388   0.04505   0.05248   0.05805
 Alpha virt. eigenvalues --    0.05905   0.06918   0.07183   0.07700   0.08286

 Mulliken charges:
               1
     1  C   -0.545898
     2  C   -0.206351
     3  F   -0.280697
     4  C    0.471827
     5  F   -0.302345
     6  C    0.464633
     7  C    0.460952
     8  F   -0.304530
     9  C    0.595822
    10  F   -0.330183
    11  S    1.354867
    12  O   -0.534879
    13  O   -0.473394
    14  N   -0.975687
    15  H    0.450763
    16  F   -0.300842
    17  H    0.455942
 Sum of Mulliken charges =   0.00000

 Dipole moment (field-independent basis, Debye):
    X=              1.8472    Y=             -2.2361    Z=              3.1730  Tot=              4.2988
 Quadrupole moment (field-independent basis, Debye-Ang):
   XX=           -101.9315   YY=            -94.9736   ZZ=            -84.6894
   XY=              6.1650   XZ=             -8.4058   YZ=             -3.8482

  Exact polarizability:     128.275       1.067     106.490      -1.284       0.464      66.147
 Approx polarizability:     147.192       0.143     149.626       0.371       4.086      88.498

                      1                      2                      3
                      A                      A                      A
 Frequencies --     43.1283                69.0765               133.6162
 Red. masses --      8.4411                11.5654                17.1202
 Frc consts  --      0.0093                 0.0325                 0.1801
 IR Inten    --      4.5945                 2.7694                 0.4023

                      4                      5                      6
                      A                      A                      A
 Frequencies --    154.0038               162.5589               201.0153
 Red. masses --     12.8654                13.4008                12.3915
 Frc consts  --      0.1798                 0.2086                 0.2950
 IR Inten    --      0.8232                 3.0438                 6.8859

                      7                      8                      9
                      A                      A                      A
 Frequencies --    242.3739               258.6651               263.3946
 Red. masses --      8.7529                 7.1006                 6.1317
 Frc consts  --      0.3030                 0.2799                 0.2506
 IR Inten    --      5.1039                 9.2061                 5.5971

                     10                     11                     12
                      A                      A                      A
 Frequencies --    272.2925               279.5133               314.9078
 Red. masses --     11.8628                17.7950                 4.9553
 Frc consts  --      0.5182                 0.8191                 0.2895
 IR Inten    --      0.6594                 0.1490                 1.1023

                     13                     14                     15
                      A                      A                      A
 Frequencies --    341.7536               357.3804               394.2849
 Red. masses --      3.0333                 8.5405                11.6083
 Frc consts  --      0.2087                 0.6427                 1.0633
 IR Inten    --      6.8227                 4.1032                 0.1182

                     16                     17                     18
                      A                      A                      A
 Frequencies --    417.8539               447.1801               466.0043
 Red. masses --      6.9662                14.6785                 2.1658
 Frc consts  --      0.7166                 1.7294                 0.2771
 IR Inten    --      5.7857                 0.5005                20.9504

                     19                     20                     21
                      A                      A                      A
 Frequencies --    495.0919               499.0628               551.2717
 Red. masses --     14.1520                11.2812                 1.9556
 Frc consts  --      2.0438                 1.6555                 0.3502
 IR Inten    --     10.8994                15.9759                87.4115

                     22                     23                     24
                      A                      A                      A
 Frequencies --    591.4723               627.0118               640.6953
 Red. masses --     14.5811                 4.6634                11.9887
 Frc consts  --      3.0054                 1.0802                 2.8995
 IR Inten    --     13.7099               472.6601                 2.1142

                     25                     26                     27
                      A                      A                      A
 Frequencies --    670.7687               683.5179               775.1017
 Red. masses --     11.9695                11.6853                11.8823
 Frc consts  --      3.1730                 3.2165                 4.2060
 IR Inten    --      2.3620                 7.2110                 0.4025

                     28                     29                     30
                      A                      A                      A
 Frequencies --    863.0866               891.8647              1037.4193
 Red. masses --      8.0177                 6.2565                13.6470
 Frc consts  --      3.5189                 2.9321                 8.6536
 IR Inten    --      8.0193                64.5642               163.0057

                     31                     32                     33
                      A                      A                      A
 Frequencies --   1103.2397              1154.5340              1191.8957
 Red. masses --      1.2631                13.3453                16.2618
 Frc consts  --      0.9058                10.4808                13.6111
 IR Inten    --      4.4677               138.9921               252.2160

                     34                     35                     36
                      A                      A                      A
 Frequencies --   1220.1663              1312.6410              1364.8552
 Red. masses --     13.6255                12.0139                12.8485
 Frc consts  --     11.9520                12.1963                14.1019
 IR Inten    --     17.8178                 6.7237                37.5516

                     37                     38                     39
                      A                      A                      A
 Frequencies --   1423.1660              1473.1191              1580.7419
 Red. masses --     14.8701                12.4979                12.1185
 Frc consts  --     17.7450                15.9795                17.8411
 IR Inten    --    174.5307                 7.1563               524.1394

                     40                     41                     42
                      A                      A                      A
 Frequencies --   1600.2099              1614.2626              1707.5919
 Red. masses --     11.9437                 1.1235                12.0021
 Frc consts  --     18.0196                 1.7250                20.6193
 IR Inten    --    210.1384                52.5226                17.5913

                     43                     44                     45
                      A                      A                      A
 Frequencies --   1723.0702              3554.6797              3679.1755
 Red. masses --     12.0603                 1.0457                 1.1025
 Frc consts  --     21.0967                 7.7852                 8.7926
 IR Inten    --     42.8819                56.8813                70.2377

 - Thermochemistry -
 -------------------
 Temperature   298.150 Kelvin.  Pressure   1.00000 Atm.
 Atom     1 has atomic number  6 and mass  12.00000

 Molecular mass:   246.97264 amu.
 Principal axes and moments of inertia in atomic units:
                           1         2         3
     Eigenvalues --  2135.261864146.509485905.61791
           X            0.99992   0.01004  -0.00775
           Y           -0.01008   0.99993  -0.00592
           Z            0.00769   0.00600   0.99995
 This molecule is an asymmetric top.
 Rotational symmetry number  1.
 Warning -- assumption of classical behavior for rotation
           may cause significant error
 Rotational temperatures (Kelvin)      0.04056     0.02089     0.01467
 Rotational constants (GHZ):           0.84521     0.43524     0.30560
 Zero-point vibrational energy     232366.9 (Joules/Mol)
                                   55.53703 (Kcal/Mol)
 Warning -- explicit consideration of  22 degrees of freedom as
           vibrations may cause significant error
 Vibrational temperatures:     62.05    99.39   192.24   221.58   233.89
          (Kelvin)            289.22   348.72   372.16   378.97   391.77
                              402.16   453.08   491.71   514.19   567.29
                              601.20   643.39   670.48   712.33   718.04
                              793.16   851.00   902.13   921.82   965.09
                              983.43  1115.20  1241.79  1283.19  1492.62
                             1587.32  1661.12  1714.87  1755.55  1888.60
                             1963.72  2047.62  2119.49  2274.34  2302.35
                             2322.56  2456.84  2479.11  5114.39  5293.51

 Zero-point correction=                           0.088504 (Hartree/Particle)
 Thermal correction to Energy=                    0.101756
 Thermal correction to Enthalpy=                  0.102700
 Thermal correction to Gibbs Free Energy=         0.048429
 Sum of electronic and zero-point Energies=          -1331.889223
 Sum of electronic and thermal Energies=             -1331.875971
 Sum of electronic and thermal Enthalpies=           -1331.875027
 Sum of electronic and thermal Free Energies=        -1331.929298

                     E (Thermal)             CV                S
                      KCal/Mol        Cal/Mol-Kelvin    Cal/Mol-Kelvin
 Total                   63.853             48.607            114.222
 Electronic               0.000              0.000              0.000
 Translational            0.889              2.981             42.413
 Rotational               0.889              2.981             32.325
 Vibrational             62.075             42.645             39.484
 Vibration     1          0.595              1.980              5.110
 Vibration     2          0.598              1.969              4.180
 Vibration     3          0.613              1.920              2.893
 Vibration     4          0.620              1.898              2.622
 Vibration     5          0.623              1.888              2.520
 Vibration     6          0.638              1.838              2.124
 Vibration     7          0.659              1.775              1.785
 Vibration     8          0.667              1.748              1.671
 Vibration     9          0.670              1.740              1.639
 Vibration    10          0.675              1.724              1.582
 Vibration    11          0.680              1.711              1.537
 Vibration    12          0.702              1.645              1.336
 Vibration    13          0.721              1.592              1.204
 Vibration    14          0.733              1.560              1.133
 Vibration    15          0.761              1.482              0.984
 Vibration    16          0.781              1.431              0.899
 Vibration    17          0.806              1.367              0.804
 Vibration    18          0.823              1.325              0.749
 Vibration    19          0.851              1.261              0.671
 Vibration    20          0.855              1.252              0.660
 Vibration    21          0.907              1.137              0.542
 Vibration    22          0.949              1.050              0.465

 Optimization completed.
    -- Stationary point found.
 Normal termination of Gaussian 16 at Fri May 20 19:56:46 2022.
