 Gaussian 16, Revision C.01,
 Gaussian 16:  ES64L-G16RevC.01  3-Jul-2019

 --------------------------------------------------
 #M062X/gen 6D INT(grid=ultrafine) OPT Freq=noraman
 --------------------------------------------------

 ----------
 HA.9.freq
 ----------
 Symbolic Z-matrix:
 Charge =  0 Multiplicity = 1

 SCF Done:  E(RM062X) =  -950.449021103     A.U. after   16 cycles
 SCF Done:  E(RM062X) =  -950.450682866     A.U. after   13 cycles
 SCF Done:  E(RM062X) =  -950.450828929     A.U. after   13 cycles
 SCF Done:  E(RM062X) =  -950.450846185     A.U. after   13 cycles
 SCF Done:  E(RM062X) =  -950.450852038     A.U. after   12 cycles
 SCF Done:  E(RM062X) =  -950.450854803     A.U. after   12 cycles
 SCF Done:  E(RM062X) =  -950.450855434     A.U. after   11 cycles
 SCF Done:  E(RM062X) =  -950.450855570     A.U. after   10 cycles
 SCF Done:  E(RM062X) =  -950.450855654     A.U. after    9 cycles
 Optimization completed.
    -- Stationary point found.
 Normal termination of Gaussian 16 at Wed Jun 29 11:37:42 2022.

 ------------------------------------------------------------------
 #N Geom=AllCheck Guess=TCheck SCRF=Check GenChk RM062X/ChkBas Freq
 ------------------------------------------------------------------

 Structure from the checkpoint file:  "/jobfs/48698387.gadi-pbs/Gau-2134265.chk"
 ----------
 HA.9.freq
 ----------
 Charge =  0 Multiplicity = 1

                         Standard orientation:
 ---------------------------------------------------------------------
 Center     Atomic      Atomic             Coordinates (Angstroms)
 Number     Number       Type             X           Y           Z
 ---------------------------------------------------------------------
      1          6           0        0.504718    0.057042   -0.103450
      2          6           0       -0.078941    1.326793   -0.070438
      3          1           0        0.549828    2.211408   -0.114651
      4          6           0       -1.456912    1.438989   -0.012508
      5          1           0       -1.946260    2.407252    0.005043
      6          6           0       -2.256688    0.285769    0.006906
      7          8           0       -3.590553    0.501557    0.061939
      8          6           0       -1.666991   -0.981849   -0.038694
      9          1           0       -2.270038   -1.881974   -0.042850
     10          6           0       -0.277892   -1.090170   -0.094215
     11          1           0        0.196248   -2.065579   -0.153761
     12         16           0        2.276905   -0.091550   -0.133043
     13          8           0        2.594266   -1.415013   -0.640744
     14          8           0        2.807314    1.129653   -0.713290
     15          7           0        2.803079   -0.088888    1.450837
     16          1           0        2.461571   -0.890419    1.975161
     17          1           0        2.612072    0.791842    1.921912
     18          6           0       -4.449076   -0.623326    0.065327
     19          1           0       -5.461849   -0.225006    0.110517
     20          1           0       -4.264116   -1.256312    0.940953
     21          1           0       -4.327005   -1.213255   -0.850296
 ---------------------------------------------------------------------

 SCF Done:  E(RM062X) =  -950.450855654     A.U. after    1 cycles

 The electronic state is 1-A.
 Alpha  occ. eigenvalues --  -90.16705 -19.70193 -19.64361 -19.64336 -14.80241
 Alpha  occ. eigenvalues --  -10.64507 -10.62170 -10.59462 -10.58983 -10.58795
 Alpha  occ. eigenvalues --  -10.58118 -10.57675  -8.47654  -6.39872  -6.39824
 Alpha  occ. eigenvalues --   -6.39729  -1.24687  -1.22159  -1.13356  -1.02589
 Alpha  occ. eigenvalues --   -0.99159  -0.89217  -0.87741  -0.82472  -0.75406
 Alpha  occ. eigenvalues --   -0.72580  -0.68988  -0.64819  -0.62324  -0.61930
 Alpha  occ. eigenvalues --   -0.58724  -0.57845  -0.57371  -0.54734  -0.52867
 Alpha  occ. eigenvalues --   -0.52039  -0.50639  -0.49627  -0.47910  -0.45434
 Alpha  occ. eigenvalues --   -0.42925  -0.41793  -0.41748  -0.40244  -0.38715
 Alpha  occ. eigenvalues --   -0.38436  -0.37329  -0.33734  -0.30291
 Alpha virt. eigenvalues --   -0.01040  -0.00562   0.00044   0.01237   0.02252
 Alpha virt. eigenvalues --    0.03066   0.03827   0.04310   0.05292   0.05663
 Alpha virt. eigenvalues --    0.06642   0.07114   0.08232   0.08519   0.09156

 Mulliken charges:
               1
     1  C   -0.931936
     2  C   -0.073053
     3  H    0.255037
     4  C   -0.223912
     5  H    0.232352
     6  C    0.013860
     7  O   -0.382800
     8  C    0.692850
     9  H    0.213473
    10  C   -0.729589
    11  H    0.256341
    12  S    1.490549
    13  O   -0.543367
    14  O   -0.540893
    15  N   -0.939090
    16  H    0.438026
    17  H    0.437246
    18  C   -0.321797
    19  H    0.227141
    20  H    0.213166
    21  H    0.216396
 Sum of Mulliken charges =   0.00000

 Dipole moment (field-independent basis, Debye):
    X=             -5.9502    Y=             -0.7656    Z=              3.6971  Tot=              7.0469
 Quadrupole moment (field-independent basis, Debye-Ang):
   XX=            -83.2023   YY=            -75.3746   ZZ=            -76.5953
   XY=              6.9117   XZ=              9.3476   YZ=             -0.1620

  Exact polarizability:     158.960       1.810     112.265       1.432       0.158      78.683
 Approx polarizability:     169.294       0.158     158.255      -1.296       0.427      99.699

                      1                      2                      3
                      A                      A                      A
 Frequencies --     44.1377                68.7271               117.8720
 Red. masses --      4.3963                 4.1384                 4.0812
 Frc consts  --      0.0050                 0.0115                 0.0334
 IR Inten    --      2.6464                 1.9964                 9.7211

                      4                      5                      6
                      A                      A                      A
 Frequencies --    150.9222               204.3302               247.4428
 Red. masses --      6.1295                 3.1475                 3.3689
 Frc consts  --      0.0823                 0.0774                 0.1215
 IR Inten    --      2.3959                 4.7937                 5.5046

                      7                      8                      9
                      A                      A                      A
 Frequencies --    272.8224               277.9013               301.6600
 Red. masses --      1.6358                 1.5459                 3.0255
 Frc consts  --      0.0717                 0.0703                 0.1622
 IR Inten    --      6.7280                 5.0776                 1.6466

                     10                     11                     12
                      A                      A                      A
 Frequencies --    366.2250               406.1316               429.2764
 Red. masses --      5.0818                 3.2666                 3.0355
 Frc consts  --      0.4016                 0.3175                 0.3296
 IR Inten    --      5.2963                 5.8684                 0.0630

                     13                     14                     15
                      A                      A                      A
 Frequencies --    457.0824               488.8694               495.4777
 Red. masses --      3.2517                 5.9128                 4.5521
 Frc consts  --      0.4003                 0.8326                 0.6584
 IR Inten    --     13.5744                 9.6629                 1.2992

                     16                     17                     18
                      A                      A                      A
 Frequencies --    546.9444               564.3651               636.5064
 Red. masses --      3.2561                 5.0337                 5.1407
 Frc consts  --      0.5739                 0.9446                 1.2271
 IR Inten    --     56.4354                36.8587                20.9153

                     19                     20                     21
                      A                      A                      A
 Frequencies --    647.1186               718.7860               730.3083
 Red. masses --      3.6956                 2.7689                 3.7733
 Frc consts  --      0.9118                 0.8429                 1.1857
 IR Inten    --     86.8144               444.4673                11.5175

                     22                     23                     24
                      A                      A                      A
 Frequencies --    831.7948               844.1152               860.4997
 Red. masses --      4.6948                 1.3077                 2.0061
 Frc consts  --      1.9138                 0.5490                 0.8752
 IR Inten    --     44.5739                13.8370                96.0016

                     25                     26                     27
                      A                      A                      A
 Frequencies --    868.2062               984.2956              1003.4954
 Red. masses --      2.4872                 1.3149                 1.3334
 Frc consts  --      1.1046                 0.7505                 0.7911
 IR Inten    --      6.8415                 0.0819                 0.1363

                     28                     29                     30
                      A                      A                      A
 Frequencies --   1026.6052              1108.9593              1111.4098
 Red. masses --      3.1880                 1.4313                 3.8171
 Frc consts  --      1.9796                 1.0371                 2.7780
 IR Inten    --      1.5287                12.3979                26.1648

                     31                     32                     33
                      A                      A                      A
 Frequencies --   1124.9842              1143.9158              1179.8097
 Red. masses --      3.2431                 1.2643                 5.2481
 Frc consts  --      2.4183                 0.9747                 4.3040
 IR Inten    --     38.2373                11.2188               326.8447

                     34                     35                     36
                      A                      A                      A
 Frequencies --   1188.7073              1208.6323              1221.6905
 Red. masses --      1.2745                 1.2935                 1.3807
 Frc consts  --      1.0611                 1.1133                 1.2141
 IR Inten    --      1.4373                 4.8355                 4.2432

                     37                     38                     39
                      A                      A                      A
 Frequencies --   1325.9456              1329.6315              1367.4927
 Red. masses --      4.9084                 1.3158                 6.5652
 Frc consts  --      5.0844                 1.3706                 7.2335
 IR Inten    --    174.3657                15.6816               119.6034

                     40                     41                     42
                      A                      A                      A
 Frequencies --   1393.4720              1467.2235              1497.4784
 Red. masses --     11.6165                 3.3074                 1.2109
 Frc consts  --     13.2900                 4.1950                 1.5999
 IR Inten    --    210.3544                 6.6310                11.7765

                     43                     44                     45
                      A                      A                      A
 Frequencies --   1524.7646              1532.3052              1559.8480
 Red. masses --      1.0445                 1.0552                 2.6075
 Frc consts  --      1.4308                 1.4597                 3.7379
 IR Inten    --      9.7431                35.7328               117.9094

                     46                     47                     48
                      A                      A                      A
 Frequencies --   1623.4495              1662.2998              1684.4973
 Red. masses --      1.1096                 7.2266                 6.1905
 Frc consts  --      1.7230                11.7652                10.3495
 IR Inten    --     52.1304                32.0305               139.0307

                     49                     50                     51
                      A                      A                      A
 Frequencies --   3069.1215              3137.0451              3205.5274
 Red. masses --      1.0343                 1.1069                 1.1008
 Frc consts  --      5.7401                 6.4178                 6.6641
 IR Inten    --     43.1524                30.0809                16.4778

                     52                     53                     54
                      A                      A                      A
 Frequencies --   3236.8544              3239.4539              3251.5022
 Red. masses --      1.0892                 1.0905                 1.0955
 Frc consts  --      6.7238                 6.7425                 6.8239
 IR Inten    --      0.1173                 0.4328                 2.1795

                     55                     56                     57
                      A                      A                      A
 Frequencies --   3263.9418              3541.2477              3658.6647
 Red. masses --      1.0926                 1.0471                 1.0995
 Frc consts  --      6.8582                 7.7366                 8.6712
 IR Inten    --      4.7205                35.9835                39.4257

 - Thermochemistry -
 -------------------
 Temperature   298.150 Kelvin.  Pressure   1.00000 Atm.
 Atom     1 has atomic number  6 and mass  12.00000

 Molecular mass:   187.03032 amu.
 Principal axes and moments of inertia in atomic units:
                           1         2         3
     Eigenvalues --   756.021194358.737534726.52336
           X            0.99990   0.01205   0.00770
           Y           -0.01203   0.99993  -0.00195
           Z           -0.00772   0.00185   0.99997
 This molecule is an asymmetric top.
 Rotational symmetry number  1.
 Warning -- assumption of classical behavior for rotation
           may cause significant error
 Rotational temperatures (Kelvin)      0.11457     0.01987     0.01833
 Rotational constants (GHZ):           2.38716     0.41405     0.38183
 Zero-point vibrational energy     427376.6 (Joules/Mol)
                                  102.14547 (Kcal/Mol)
 Warning -- explicit consideration of  17 degrees of freedom as
           vibrations may cause significant error
 Vibrational temperatures:     63.50    98.88   169.59   217.14   293.99
          (Kelvin)            356.02   392.53   399.84   434.02   526.92
                              584.33   617.63   657.64   703.37   712.88
                              786.93   812.00   915.79   931.06  1034.17
                             1050.75  1196.77  1214.49  1238.07  1249.16
                             1416.18  1443.81  1477.06  1595.55  1599.07
                             1618.60  1645.84  1697.48  1710.28  1738.95
                             1757.74  1907.74  1913.04  1967.52  2004.90
                             2111.01  2154.54  2193.80  2204.65  2244.27
                             2335.78  2391.68  2423.62  4415.78  4513.51
                             4612.04  4657.11  4660.85  4678.19  4696.08
                             5095.07  5264.00

 Zero-point correction=                           0.162779 (Hartree/Particle)
 Thermal correction to Energy=                    0.174060
 Thermal correction to Enthalpy=                  0.175004
 Thermal correction to Gibbs Free Energy=         0.125089
 Sum of electronic and zero-point Energies=           -950.288076
 Sum of electronic and thermal Energies=              -950.276795
 Sum of electronic and thermal Enthalpies=            -950.275851
 Sum of electronic and thermal Free Energies=         -950.325767

                     E (Thermal)             CV                S
                      KCal/Mol        Cal/Mol-Kelvin    Cal/Mol-Kelvin
 Total                  109.224             42.699            105.057
 Electronic               0.000              0.000              0.000
 Translational            0.889              2.981             41.584
 Rotational               0.889              2.981             31.122
 Vibrational            107.447             36.737             32.351
 Vibration     1          0.595              1.980              5.064
 Vibration     2          0.598              1.969              4.189
 Vibration     3          0.608              1.934              3.135
 Vibration     4          0.618              1.902              2.661
 Vibration     5          0.640              1.834              2.094
 Vibration     6          0.661              1.767              1.749
 Vibration     7          0.676              1.723              1.578
 Vibration     8          0.679              1.714              1.547
 Vibration     9          0.694              1.671              1.408
 Vibration    10          0.739              1.542              1.096
 Vibration    11          0.771              1.457              0.940
 Vibration    12          0.791              1.406              0.861
 Vibration    13          0.815              1.345              0.775
 Vibration    14          0.845              1.275              0.687
 Vibration    15          0.851              1.260              0.670
 Vibration    16          0.902              1.146              0.551
 Vibration    17          0.920              1.108              0.515

                           ! Non-Optimized Parameters !
 Normal termination of Gaussian 16 at Wed Jun 29 11:41:34 2022.
