 Q-Chem 5.4 (devel), Q-Chem, Inc., Pleasanton, CA (2021)
 Q-Chem 5.4.1 for Intel X86 EM64T Linux

User input:
--------------------------------------------------------------
$molecule
-1  1
C -1.302402  0.73735 -0.931534
C -2.509464  0.760738 -1.631343
H -3.454237  0.704427 -1.097078
C -2.492475  0.864437 -3.020855
H -3.428852  0.88795 -3.570393
C -1.276348  0.940972 -3.703177
H -1.266241  1.023294 -4.786045
C -0.075426  0.914174 -2.994519
H  0.871273  0.976931 -3.52298
C -0.083925  0.809232 -1.602796
H  0.846873  0.790065 -1.044501
S -1.336541  0.508879  0.854963
O  0.011442  0.924736  1.328744
O -2.438318  1.415467  1.306071
N -1.552017 -1.003281  1.194036
H -2.519201 -1.241733  0.956995
$end

$rem
jobtype sp
exchange M062X
basis 6-31+G*
SMX_GAS_PHASE = TRUE
solvent_method sm12
$end

$smx
solvent water
charges mk
$end
--------------------------------------------------------------

             Standard Nuclear Orientation (Angstroms)
    I     Atom           X                Y                Z
 ----------------------------------------------------------------
    1      C      -1.3024020000     0.7373500000    -0.9315340000
    2      C      -2.5094640000     0.7607380000    -1.6313430000
    3      H      -3.4542370000     0.7044270000    -1.0970780000
    4      C      -2.4924750000     0.8644370000    -3.0208550000
    5      H      -3.4288520000     0.8879500000    -3.5703930000
    6      C      -1.2763480000     0.9409720000    -3.7031770000
    7      H      -1.2662410000     1.0232940000    -4.7860450000
    8      C      -0.0754260000     0.9141740000    -2.9945190000
    9      H       0.8712730000     0.9769310000    -3.5229800000
   10      C      -0.0839250000     0.8092320000    -1.6027960000
   11      H       0.8468730000     0.7900650000    -1.0445010000
   12      S      -1.3365410000     0.5088790000     0.8549630000
   13      O       0.0114420000     0.9247360000     1.3287440000
   14      O      -2.4383180000     1.4154670000     1.3060710000
   15      N      -1.5520170000    -1.0032810000     1.1940360000
   16      H      -2.5192010000    -1.2417330000     0.9569950000
 ----------------------------------------------------------------

    8    -835.4046801128      7.68e-06  Convergence criterion met
 Total energy in the final basis set =     -835.4046801128
    5    -835.3933335243      7.37e-06  Convergence criterion met
 Total energy in the final basis set =     -835.5147553287

                    Orbital Energies (a.u.)
 --------------------------------------------------------------

 Alpha MOs
 -- Occupied --
-90.1381 -19.6276 -19.6271 -14.7310 -10.5914 -10.5786 -10.5766 -10.5757
-10.5752 -10.5745  -8.4514  -6.3739  -6.3731  -6.3724  -1.2145  -1.0996
 -0.9866  -0.9711  -0.8717  -0.8653  -0.7408  -0.7090  -0.6708  -0.6226
 -0.5761  -0.5556  -0.5468  -0.5309  -0.5194  -0.5082  -0.4633  -0.4453
 -0.4295  -0.4220  -0.4014  -0.3831  -0.3708  -0.3409  -0.3338  -0.3273
 -0.2987

          Ground-State Mulliken Net Atomic Charges

     Atom                 Charge (a.u.)
  ----------------------------------------
      1 C                    -3.285182
      2 C                     0.115488
      3 H                     0.254829
      4 C                     1.458232
      5 H                     0.286597
      6 C                     1.360555
      7 H                     0.286884
      8 C                     1.300914
      9 H                     0.285324
     10 C                    -1.585330
     11 H                     0.252940
     12 S                     0.485142
     13 O                    -0.886263
     14 O                    -0.763727
     15 N                    -0.965755
     16 H                     0.399353
  ----------------------------------------
  Sum of atomic charges =    -1.000000

                    Cartesian Multipole Moments
 -----------------------------------------------------------------
    Charge (ESU x 10^10)
                -4.8032
    Dipole Moment (Debye)
         X       4.9545      Y      -2.3150      Z      -9.4663
       Tot      10.9324
    Quadrupole Moments (Debye-Ang)
        XX     -74.2795     XY       6.1206     YY     -82.5064
        XZ      11.1717     YZ      -5.7309     ZZ     -74.0524

 Total job time:  9.42s(wall), 118.10s(cpu)
        *  Thank you very much for using Q-Chem.  Have a nice day.  *
