 Q-Chem 5.4 (devel), Q-Chem, Inc., Pleasanton, CA (2021)
 Q-Chem 5.4.1 for Intel X86 EM64T Linux

User input:
--------------------------------------------------------------
$molecule
-1  1
C -1.3917891336  0.7240534892 -1.0355314268
C -2.3860577194  1.2595784827 -1.8454982927
H -3.3364741855  1.5531386514 -1.4088468853
C -2.1771308548  1.4139693661 -3.2159676608
H -2.9711243903  1.8261335566 -3.8295668198
C -0.9508329077  1.0430318462 -3.7929913691
N -0.6884597134  1.2280860362 -5.1381392598
C  0.0497123894  0.4984128159 -2.9576771891
H  0.9989311364  0.1998930884 -3.3963168364
C -0.1680008369  0.3423196126 -1.6000734465
H  0.6130957256 -0.0830278758 -0.975474724
S -1.6365785155  0.5711226561  0.7329182749
O -1.096668175 -0.7914707136  1.050925846
O -0.8198406852  1.6640854682  1.3430632525
N -3.1376055914  0.7959909197  1.1012387444
H -3.6711295528 -0.0154698425  0.7786120631
C -1.7863728374  1.4272791481 -6.0699085859
H  0.0531448231  0.6332894289 -5.4909655932
H -2.2539371293  2.4029950048 -5.9112270434
H -2.5603957057  0.6527966774 -5.979306932
H -1.3847061408  1.4061891834 -7.0833941161
$end

$rem
jobtype sp
exchange M062X
basis 6-31+G*
SMX_GAS_PHASE = TRUE
solvent_method sm12
$end

$smx
solvent water
charges mk
$end
--------------------------------------------------------------

             Standard Nuclear Orientation (Angstroms)
    I     Atom           X                Y                Z
 ----------------------------------------------------------------
    1      C      -1.3917891336     0.7240534892    -1.0355314268
    2      C      -2.3860577194     1.2595784827    -1.8454982927
    3      H      -3.3364741855     1.5531386514    -1.4088468853
    4      C      -2.1771308548     1.4139693661    -3.2159676608
    5      H      -2.9711243903     1.8261335566    -3.8295668198
    6      C      -0.9508329077     1.0430318462    -3.7929913691
    7      N      -0.6884597134     1.2280860362    -5.1381392598
    8      C       0.0497123894     0.4984128159    -2.9576771891
    9      H       0.9989311364     0.1998930884    -3.3963168364
   10      C      -0.1680008369     0.3423196126    -1.6000734465
   11      H       0.6130957256    -0.0830278758    -0.9754747240
   12      S      -1.6365785155     0.5711226561     0.7329182749
   13      O      -1.0966681750    -0.7914707136     1.0509258460
   14      O      -0.8198406852     1.6640854682     1.3430632525
   15      N      -3.1376055914     0.7959909197     1.1012387444
   16      H      -3.6711295528    -0.0154698425     0.7786120631
   17      C      -1.7863728374     1.4272791481    -6.0699085859
   18      H       0.0531448231     0.6332894289    -5.4909655932
   19      H      -2.2539371293     2.4029950048    -5.9112270434
   20      H      -2.5603957057     0.6527966774    -5.9793069320
   21      H      -1.3847061408     1.4061891834    -7.0833941161
 ----------------------------------------------------------------

    8    -930.0214335232      9.00e-06  Convergence criterion met
 Total energy in the final basis set =     -930.0214335232
    5    -930.0044301320      8.73e-06  Convergence criterion met
 Total energy in the final basis set =     -930.1431995219

                    Orbital Energies (a.u.)
 --------------------------------------------------------------

 Alpha MOs
 -- Occupied --
-90.1341 -19.6232 -19.6217 -14.7848 -14.7292 -10.6108 -10.5785 -10.5765
-10.5751 -10.5739 -10.5665 -10.5634  -8.4473  -6.3697  -6.3690  -6.3685
 -1.2081  -1.0918  -1.0588  -0.9774  -0.9616  -0.8635  -0.8575  -0.7857
 -0.7278  -0.7034  -0.6660  -0.6221  -0.5997  -0.5615  -0.5555  -0.5326
 -0.5280  -0.5210  -0.5060  -0.4973  -0.4769  -0.4603  -0.4492  -0.4227
 -0.4158  -0.4001  -0.3924  -0.3622  -0.3590  -0.3370  -0.3247  -0.3101
 -0.2648

          Ground-State Mulliken Net Atomic Charges

     Atom                 Charge (a.u.)
  ----------------------------------------
      1 C                    -4.192547
      2 C                    -3.261959
      3 H                     0.258831
      4 C                     4.037840
      5 H                     0.269794
      6 C                     2.749015
      7 N                    -0.431726
      8 C                     1.117874
      9 H                     0.271690
     10 C                    -1.471914
     11 H                     0.236895
     12 S                     0.528744
     13 O                    -0.774693
     14 O                    -0.847221
     15 N                    -1.117455
     16 H                     0.414960
     17 C                     0.042421
     18 H                     0.452409
     19 H                     0.233218
     20 H                     0.221395
     21 H                     0.262431
  ----------------------------------------
  Sum of atomic charges =    -1.000000

                    Cartesian Multipole Moments
 -----------------------------------------------------------------
    Charge (ESU x 10^10)
                -4.8032
    Dipole Moment (Debye)
         X       7.5729      Y      -4.0289      Z     -12.1409
       Tot      14.8655
    Quadrupole Moments (Debye-Ang)
        XX     -94.8920     XY       4.9634     YY     -97.3582
        XZ      17.0292     YZ      -8.6462     ZZ     -63.9152

 Total job time:  19.89s(wall), 141.41s(cpu)
        *  Thank you very much for using Q-Chem.  Have a nice day.  *
