 Q-Chem 5.4 (devel), Q-Chem, Inc., Pleasanton, CA (2021)
 Q-Chem 5.4.1 for Intel X86 EM64T Linux

User input:
--------------------------------------------------------------
$molecule
-1  1
C -1.3864915805  0.7212503937 -1.016981444
C -2.5550592783  1.0426318095 -1.7032406457
H -3.471132811  1.2424573923 -1.1558142892
C -2.5316630325  1.1191789836 -3.0956394375
H -3.4397041338  1.379971859 -3.6351004631
C -1.355062019  0.8711018779 -3.8089542675
C -1.3502552133  0.8917936273 -5.3200292313
C -0.1924403814  0.5453471536 -3.0997238519
H  0.7308273797  0.3562641905 -3.6434834443
C -0.2019381157  0.4675161068 -1.7097099884
H  0.7080736529  0.2227231591 -1.1683826111
S -1.410802008  0.5380990347  0.7735158503
O -0.1183892365  1.1542402487  1.2083979628
O -2.6133900618  1.2893543832  1.2262647207
N -1.5798152465 -0.9700660745  1.1561674551
H -0.7027791443 -1.4489155703  0.9325173791
N -1.6167886412 -0.4160763978 -5.9382685173
H -2.1065359355  1.5949394955 -5.6793360866
H -0.3785592149  1.2416380147 -5.6794217619
H -2.5157887538 -0.7561205746 -5.5963358646
H -0.9249442247 -1.082154113 -5.5939144635
$end

$rem
jobtype sp
exchange M062X
basis 6-31+G*
SMX_GAS_PHASE = TRUE
solvent_method sm12
$end

$smx
solvent water
charges mk
$end
--------------------------------------------------------------

             Standard Nuclear Orientation (Angstroms)
    I     Atom           X                Y                Z
 ----------------------------------------------------------------
    1      C      -1.3864915805     0.7212503937    -1.0169814440
    2      C      -2.5550592783     1.0426318095    -1.7032406457
    3      H      -3.4711328110     1.2424573923    -1.1558142892
    4      C      -2.5316630325     1.1191789836    -3.0956394375
    5      H      -3.4397041338     1.3799718590    -3.6351004631
    6      C      -1.3550620190     0.8711018779    -3.8089542675
    7      C      -1.3502552133     0.8917936273    -5.3200292313
    8      C      -0.1924403814     0.5453471536    -3.0997238519
    9      H       0.7308273797     0.3562641905    -3.6434834443
   10      C      -0.2019381157     0.4675161068    -1.7097099884
   11      H       0.7080736529     0.2227231591    -1.1683826111
   12      S      -1.4108020080     0.5380990347     0.7735158503
   13      O      -0.1183892365     1.1542402487     1.2083979628
   14      O      -2.6133900618     1.2893543832     1.2262647207
   15      N      -1.5798152465    -0.9700660745     1.1561674551
   16      H      -0.7027791443    -1.4489155703     0.9325173791
   17      N      -1.6167886412    -0.4160763978    -5.9382685173
   18      H      -2.1065359355     1.5949394955    -5.6793360866
   19      H      -0.3785592149     1.2416380147    -5.6794217619
   20      H      -2.5157887538    -0.7561205746    -5.5963358646
   21      H      -0.9249442247    -1.0821541130    -5.5939144635
 ----------------------------------------------------------------

    8    -930.0272804931      7.46e-06  Convergence criterion met
 Total energy in the final basis set =     -930.0272804931
    5    -930.0140189884      7.25e-06  Convergence criterion met
 Total energy in the final basis set =     -930.1430829886

                    Orbital Energies (a.u.)
 --------------------------------------------------------------

 Alpha MOs
 -- Occupied --
-90.1370 -19.6265 -19.6260 -14.7543 -14.7300 -10.5882 -10.5834 -10.5768
-10.5750 -10.5741 -10.5715 -10.5711  -8.4502  -6.3727  -6.3720  -6.3713
 -1.2133  -1.0986  -1.0084  -0.9795  -0.9679  -0.8767  -0.8634  -0.7769
 -0.7125  -0.7115  -0.6648  -0.6152  -0.5821  -0.5683  -0.5497  -0.5419
 -0.5281  -0.5189  -0.5056  -0.4997  -0.4612  -0.4478  -0.4419  -0.4268
 -0.4129  -0.4002  -0.3820  -0.3684  -0.3436  -0.3349  -0.3259  -0.3159
 -0.2927

          Ground-State Mulliken Net Atomic Charges

     Atom                 Charge (a.u.)
  ----------------------------------------
      1 C                    -4.234373
      2 C                    -2.028632
      3 H                     0.246106
      4 C                     1.268370
      5 H                     0.278895
      6 C                     1.418789
      7 C                     1.567128
      8 C                     1.488521
      9 H                     0.283845
     10 C                    -0.028340
     11 H                     0.248841
     12 S                     0.362432
     13 O                    -0.769599
     14 O                    -0.891612
     15 N                    -0.971610
     16 H                     0.399224
     17 N                    -0.984062
     18 H                     0.234589
     19 H                     0.237242
     20 H                     0.437895
     21 H                     0.436348
  ----------------------------------------
  Sum of atomic charges =    -1.000000

                    Cartesian Multipole Moments
 -----------------------------------------------------------------
    Charge (ESU x 10^10)
                -4.8032
    Dipole Moment (Debye)
         X       8.2004      Y      -3.1185      Z      -7.7003
       Tot      11.6732
    Quadrupole Moments (Debye-Ang)
        XX     -96.7614     XY      -0.4991     YY     -91.5733
        XZ      12.0015     YZ      -5.8883     ZZ    -105.1579

 Total job time:  20.75s(wall), 148.78s(cpu)
        *  Thank you very much for using Q-Chem.  Have a nice day.  *
