 Q-Chem 5.4 (devel), Q-Chem, Inc., Pleasanton, CA (2021)
 Q-Chem 5.4.1 for Intel X86 EM64T Linux

User input:
--------------------------------------------------------------
$molecule
-1  1
C -1.3527993382  0.5418426473 -1.0120556368
C -2.5225286506  0.433380946 -1.7684345908
H -3.4868811576  0.3337566338 -1.2777909542
C -2.4418796026  0.4466793975 -3.1542198395
H -3.343237435  0.3588141989 -3.7525884712
C -1.1991188872  0.5727646315 -3.7903787146
C -1.1466004838  0.5861445183 -5.285854184
C -0.0372181575  0.6834495554 -3.0201044296
H  0.9342792556  0.7779050756 -3.4947132561
C -0.111741024  0.669195153 -1.6281594597
H  0.7899150207  0.7506265226 -1.0300587543
S -1.4846652394  0.6080382882  0.7859806905
O -2.4534068633 -0.4856678819  1.1012952773
O -0.1075466584  0.3540847366  1.2846684027
N -1.9369435082  2.0380613476  1.22381163
H -2.9237023001  2.1465689592  0.9728538489
O -2.1769905685  0.4572794999 -5.9384714702
C  0.1816037016  0.7615638205 -5.9663436804
H  0.8597339837 -0.0521952417 -5.6882460111
H  0.6480202301  1.7015532234 -5.6533939982
H  0.0370746827  0.7643559681 -7.0473553988
$end

$rem
jobtype sp
exchange M062X
basis 6-31+G*
SMX_GAS_PHASE = TRUE
solvent_method sm12
$end

$smx
solvent water
charges mk
$end
--------------------------------------------------------------

             Standard Nuclear Orientation (Angstroms)
    I     Atom           X                Y                Z
 ----------------------------------------------------------------
    1      C      -1.3527993382     0.5418426473    -1.0120556368
    2      C      -2.5225286506     0.4333809460    -1.7684345908
    3      H      -3.4868811576     0.3337566338    -1.2777909542
    4      C      -2.4418796026     0.4466793975    -3.1542198395
    5      H      -3.3432374350     0.3588141989    -3.7525884712
    6      C      -1.1991188872     0.5727646315    -3.7903787146
    7      C      -1.1466004838     0.5861445183    -5.2858541840
    8      C      -0.0372181575     0.6834495554    -3.0201044296
    9      H       0.9342792556     0.7779050756    -3.4947132561
   10      C      -0.1117410240     0.6691951530    -1.6281594597
   11      H       0.7899150207     0.7506265226    -1.0300587543
   12      S      -1.4846652394     0.6080382882     0.7859806905
   13      O      -2.4534068633    -0.4856678819     1.1012952773
   14      O      -0.1075466584     0.3540847366     1.2846684027
   15      N      -1.9369435082     2.0380613476     1.2238116300
   16      H      -2.9237023001     2.1465689592     0.9728538489
   17      O      -2.1769905685     0.4572794999    -5.9384714702
   18      C       0.1816037016     0.7615638205    -5.9663436804
   19      H       0.8597339837    -0.0521952417    -5.6882460111
   20      H       0.6480202301     1.7015532234    -5.6533939982
   21      H       0.0370746827     0.7643559681    -7.0473553988
 ----------------------------------------------------------------

    9    -988.0012338748      6.29e-06  Convergence criterion met
 Total energy in the final basis set =     -988.0012338748
    5    -987.9882839512      6.60e-06  Convergence criterion met
 Total energy in the final basis set =     -988.1090896078

                    Orbital Energies (a.u.)
 --------------------------------------------------------------

 Alpha MOs
 -- Occupied --
-90.1387 -19.6546 -19.6281 -19.6272 -14.7313 -10.6612 -10.5967 -10.5829
-10.5812 -10.5802 -10.5785 -10.5780 -10.5537  -8.4519  -6.3744  -6.3736
 -6.3730  -1.2157  -1.1814  -1.1007  -0.9922  -0.9732  -0.8956  -0.8706
 -0.8419  -0.7555  -0.7131  -0.6838  -0.6496  -0.6138  -0.5741  -0.5633
 -0.5564  -0.5383  -0.5275  -0.5265  -0.5126  -0.5045  -0.4843  -0.4657
 -0.4529  -0.4390  -0.4297  -0.4229  -0.4018  -0.3836  -0.3714  -0.3462
 -0.3405  -0.3352  -0.3308  -0.3005

          Ground-State Mulliken Net Atomic Charges

     Atom                 Charge (a.u.)
  ----------------------------------------
      1 C                    -4.263149
      2 C                    -0.596036
      3 H                     0.255191
      4 C                     1.495539
      5 H                     0.290793
      6 C                     2.651239
      7 C                     0.728238
      8 C                     2.155187
      9 H                     0.300220
     10 C                    -2.978143
     11 H                     0.261251
     12 S                     0.404325
     13 O                    -0.752382
     14 O                    -0.884989
     15 N                    -0.960855
     16 H                     0.401439
     17 O                    -0.634677
     18 C                     0.308146
     19 H                     0.280624
     20 H                     0.278936
     21 H                     0.259103
  ----------------------------------------
  Sum of atomic charges =    -1.000000

                    Cartesian Multipole Moments
 -----------------------------------------------------------------
    Charge (ESU x 10^10)
                -4.8032
    Dipole Moment (Debye)
         X       9.0453      Y      -2.3798      Z      -6.1764
       Tot      11.2084
    Quadrupole Moments (Debye-Ang)
        XX     -99.9206     XY       2.3905     YY     -98.8050
        XZ     -11.3601     YZ      -6.9517     ZZ    -114.0586

 Total job time:  26.05s(wall), 186.94s(cpu)
        *  Thank you very much for using Q-Chem.  Have a nice day.  *
