 Q-Chem 5.4 (devel), Q-Chem, Inc., Pleasanton, CA (2021)
 Q-Chem 5.4.1 for Intel X86 EM64T Linux

User input:
--------------------------------------------------------------
$molecule
-1  1
C -1.3909604168  0.6425556584 -0.8937791252
C -2.5410678224  0.5171324497 -1.6685993013
H -3.5087401877  0.3906443426 -1.1942230204
C -2.4402325918  0.5641762058 -3.0572031994
H -3.3331449451  0.472291095 -3.6661019013
C -1.1903948626  0.7322046924 -3.6591322829
C -1.038249006  0.7880270008 -5.139576908
C -0.0401940682  0.8546051556 -2.8721395288
H  0.9265337312  0.9876958939 -3.3472753769
C -0.138377604  0.808328648 -1.4873123439
H  0.752695372  0.9063397878 -0.873550792
S -1.4837445995  0.500118329  0.902647071
O -0.5876814018  1.5962943558  1.3807106855
O -2.9175807975  0.707361709  1.2349341852
N -1.0557936904 -0.9392684568  1.3338036204
H -0.0432043781 -1.0187408484  1.2041164423
O -2.1935201491  0.6610531099 -5.7921460071
O  0.030898779  0.9340246876 -5.7080405834
C -2.1194829902  0.7049328784 -7.2262297736
H -3.1440926344  0.584188066 -7.5723658182
H -1.4922617837 -0.1102174746 -7.5920342159
H -1.715965953  1.6664267141 -7.5493448263
$end

$rem
jobtype sp
exchange M062X
basis 6-31+G*
xc_grid 1
SMX_GAS_PHASE = TRUE
solvent_method sm12
$end

$smx
solvent water
charges mk
$end
--------------------------------------------------------------

             Standard Nuclear Orientation (Angstroms)
    I     Atom           X                Y                Z
 ----------------------------------------------------------------
    1      C      -1.3909604168     0.6425556584    -0.8937791252
    2      C      -2.5410678224     0.5171324497    -1.6685993013
    3      H      -3.5087401877     0.3906443426    -1.1942230204
    4      C      -2.4402325918     0.5641762058    -3.0572031994
    5      H      -3.3331449451     0.4722910950    -3.6661019013
    6      C      -1.1903948626     0.7322046924    -3.6591322829
    7      C      -1.0382490060     0.7880270008    -5.1395769080
    8      C      -0.0401940682     0.8546051556    -2.8721395288
    9      H       0.9265337312     0.9876958939    -3.3472753769
   10      C      -0.1383776040     0.8083286480    -1.4873123439
   11      H       0.7526953720     0.9063397878    -0.8735507920
   12      S      -1.4837445995     0.5001183290     0.9026470710
   13      O      -0.5876814018     1.5962943558     1.3807106855
   14      O      -2.9175807975     0.7073617090     1.2349341852
   15      N      -1.0557936904    -0.9392684568     1.3338036204
   16      H      -0.0432043781    -1.0187408484     1.2041164423
   17      O      -2.1935201491     0.6610531099    -5.7921460071
   18      O       0.0308987790     0.9340246876    -5.7080405834
   19      C      -2.1194829902     0.7049328784    -7.2262297736
   20      H      -3.1440926344     0.5841880660    -7.5723658182
   21      H      -1.4922617837    -0.1102174746    -7.5920342159
   22      H      -1.7159659530     1.6664267141    -7.5493448263
 ----------------------------------------------------------------

    9   -1063.2182886400      5.98e-06  Convergence criterion met
 Total energy in the final basis set =    -1063.2182886400
    5   -1063.2066675547      6.73e-06  Convergence criterion met
 Total energy in the final basis set =    -1063.3262082053

                    Orbital Energies (a.u.)
 --------------------------------------------------------------

 Alpha MOs
 -- Occupied --
-90.1428 -19.7083 -19.6543 -19.6284 -19.6275 -14.7323 -10.7060 -10.6053
-10.5981 -10.5893 -10.5835 -10.5824 -10.5816 -10.5802  -8.4512  -6.3735
 -6.3727  -6.3720  -1.2548  -1.2163  -1.1561  -1.1012  -0.9947  -0.9741
 -0.8972  -0.8720  -0.8338  -0.7560  -0.7160  -0.6877  -0.6614  -0.6370
 -0.6016  -0.5819  -0.5807  -0.5631  -0.5467  -0.5400  -0.5213  -0.5176
 -0.5091  -0.4909  -0.4682  -0.4593  -0.4419  -0.4302  -0.4244  -0.4024
 -0.3907  -0.3843  -0.3775  -0.3722  -0.3425  -0.3364  -0.3323  -0.3015

          Ground-State Mulliken Net Atomic Charges

     Atom                 Charge (a.u.)
  ----------------------------------------
      1 C                    -4.550707
      2 C                    -1.760951
      3 H                     0.263357
      4 C                     1.382530
      5 H                     0.293436
      6 C                     1.149797
      7 C                     2.249285
      8 C                     1.450805
      9 H                     0.296284
     10 C                    -0.146714
     11 H                     0.260706
     12 S                     0.486682
     13 O                    -0.740617
     14 O                    -0.874997
     15 N                    -0.951538
     16 H                     0.402092
     17 O                    -0.300696
     18 O                    -0.643379
     19 C                    -0.033849
     20 H                     0.269178
     21 H                     0.248941
     22 H                     0.250356
  ----------------------------------------
  Sum of atomic charges =    -1.000000

                    Cartesian Multipole Moments
 -----------------------------------------------------------------
    Charge (ESU x 10^10)
                -4.8032
    Dipole Moment (Debye)
         X       6.5940      Y      -2.6255      Z      -8.3590
       Tot      10.9657
    Quadrupole Moments (Debye-Ang)
        XX    -104.1020     XY       0.3654     YY    -104.6002
        XZ      30.6399     YZ      -2.2580     ZZ     -95.1646

 Total job time:  12.48s(wall), 156.72s(cpu)
        *  Thank you very much for using Q-Chem.  Have a nice day.  *
