 Q-Chem 5.4 (devel), Q-Chem, Inc., Pleasanton, CA (2021)
 Q-Chem 5.4.1 for Intel X86 EM64T Linux

User input:
--------------------------------------------------------------
$molecule
-1  1
C -1.1281237885  0.6227711659 -0.8439584432
C -2.3008166167  0.3572062119 -1.5627339328
C -3.553493653 -0.1385064164 -0.9146591571
C -2.3283914189  0.5523759822 -2.9445543186
H -3.2379838287  0.3262079093 -3.4939416762
C -1.2057033508  1.0469086158 -3.605027462
C -0.0470922901  1.3299930309 -2.8846009856
H  0.8332617623  1.7104359191 -3.3936032046
C -0.0047865669  1.108193201 -1.5079857195
H  0.9072038638  1.295471547 -0.950307233
S -1.0177130646  0.3121408764  0.9408252867
O -1.8021858504 -0.951081423  1.101760477
O  0.4382752196  0.144866596  1.1905060316
N -1.5374137231  1.5369558867  1.7550682666
H -2.5528448483  1.5765007585  1.6365746509
O -4.153193001 -1.1360646931 -1.2691413547
O -3.9744456528  0.6713498019  0.05299687
C -5.1061526316  0.2206288862  0.8152564517
H -1.2374067897  1.2070302744 -4.6781624715
H -5.2628368168  0.9806945628  1.5785694655
H -4.8787305879 -0.7444294121  1.2734873141
H -5.9830753659  0.1377927188  0.1706401449
$end

$rem
jobtype sp
exchange M062X
basis 6-31+G*
xc_grid 1
SMX_GAS_PHASE = TRUE
solvent_method sm12
$end

$smx
solvent water
charges mk
$end
--------------------------------------------------------------

             Standard Nuclear Orientation (Angstroms)
    I     Atom           X                Y                Z
 ----------------------------------------------------------------
    1      C      -1.1281237885     0.6227711659    -0.8439584432
    2      C      -2.3008166167     0.3572062119    -1.5627339328
    3      C      -3.5534936530    -0.1385064164    -0.9146591571
    4      C      -2.3283914189     0.5523759822    -2.9445543186
    5      H      -3.2379838287     0.3262079093    -3.4939416762
    6      C      -1.2057033508     1.0469086158    -3.6050274620
    7      C      -0.0470922901     1.3299930309    -2.8846009856
    8      H       0.8332617623     1.7104359191    -3.3936032046
    9      C      -0.0047865669     1.1081932010    -1.5079857195
   10      H       0.9072038638     1.2954715470    -0.9503072330
   11      S      -1.0177130646     0.3121408764     0.9408252867
   12      O      -1.8021858504    -0.9510814230     1.1017604770
   13      O       0.4382752196     0.1448665960     1.1905060316
   14      N      -1.5374137231     1.5369558867     1.7550682666
   15      H      -2.5528448483     1.5765007585     1.6365746509
   16      O      -4.1531930010    -1.1360646931    -1.2691413547
   17      O      -3.9744456528     0.6713498019     0.0529968700
   18      C      -5.1061526316     0.2206288862     0.8152564517
   19      H      -1.2374067897     1.2070302744    -4.6781624715
   20      H      -5.2628368168     0.9806945628     1.5785694655
   21      H      -4.8787305879    -0.7444294121     1.2734873141
   22      H      -5.9830753659     0.1377927188     0.1706401449
 ----------------------------------------------------------------

    9   -1063.2113622570      5.57e-06  Convergence criterion met
 Total energy in the final basis set =    -1063.2113622570
    5   -1063.1989772565      6.30e-06  Convergence criterion met
 Total energy in the final basis set =    -1063.3200791543

                    Orbital Energies (a.u.)
 --------------------------------------------------------------

 Alpha MOs
 -- Occupied --
-90.1430 -19.7129 -19.6615 -19.6270 -19.6247 -14.7277 -10.7129 -10.6089
-10.6019 -10.5993 -10.5863 -10.5822 -10.5815 -10.5809  -8.4509  -6.3732
 -6.3725  -6.3717  -1.2599  -1.2143  -1.1626  -1.0993  -0.9967  -0.9718
 -0.8969  -0.8778  -0.8359  -0.7515  -0.7287  -0.6879  -0.6648  -0.6382
 -0.5962  -0.5857  -0.5842  -0.5676  -0.5545  -0.5436  -0.5286  -0.5239
 -0.5060  -0.4825  -0.4643  -0.4570  -0.4480  -0.4359  -0.4247  -0.4007
 -0.3936  -0.3853  -0.3803  -0.3701  -0.3416  -0.3355  -0.3327  -0.2999

          Ground-State Mulliken Net Atomic Charges

     Atom                 Charge (a.u.)
  ----------------------------------------
      1 C                    -3.973247
      2 C                    -0.338163
      3 C                     0.307506
      4 C                     0.649216
      5 H                     0.294725
      6 C                     1.829707
      7 C                     1.741741
      8 H                     0.292482
      9 C                    -0.551403
     10 H                     0.266848
     11 S                     0.560326
     12 O                    -0.787265
     13 O                    -0.858410
     14 N                    -0.966891
     15 H                     0.430945
     16 O                    -0.526443
     17 O                    -0.360139
     18 C                    -0.111930
     19 H                     0.301749
     20 H                     0.274704
     21 H                     0.253934
     22 H                     0.270007
  ----------------------------------------
  Sum of atomic charges =    -1.000000

                    Cartesian Multipole Moments
 -----------------------------------------------------------------
    Charge (ESU x 10^10)
                -4.8032
    Dipole Moment (Debye)
         X       3.9236      Y       1.2821      Z      -7.6327
       Tot       8.6774
    Quadrupole Moments (Debye-Ang)
        XX     -94.0843     XY      -7.5272     YY    -106.1058
        XZ      -4.8107     YZ     -10.1858     ZZ     -95.5126

 Total job time:  13.66s(wall), 181.87s(cpu)
        *  Thank you very much for using Q-Chem.  Have a nice day.  *
