 Q-Chem 5.4 (devel), Q-Chem, Inc., Pleasanton, CA (2021)
 Q-Chem 5.4.1 for Intel X86 EM64T Linux

User input:
--------------------------------------------------------------
$molecule
-1  1
C -1.293146  0.700569 -0.836264
C -2.471427  0.625916 -1.58131
H -3.417769  0.400986 -1.095957
C -2.428997  0.847692 -2.951912
H -3.3396  0.798398 -3.540737
C -1.21242  1.128907 -3.584588
C -1.232989  1.365258 -5.065258
C -0.039882  1.201116 -2.828629
H  0.91038  1.449622 -3.292735
C -0.078857  0.98789 -1.450935
H  0.829234  1.057287 -0.861259
S -1.369392  0.357516  0.932959
O -0.030012  0.730854  1.459391
O -2.474681  1.247511  1.404632
N -1.609265 -1.168924  1.165398
H -2.57717 -1.378846  0.905586
N -0.107295  1.117196 -5.747286
O -2.263611  1.770849 -5.631852
C -0.034599  1.326262 -7.183561
H  0.97681  1.092474 -7.512825
H -0.262352  2.366447 -7.429814
H -0.74302  0.678046 -7.707287
H  0.690229  0.714163 -5.271856
$end

$rem
jobtype sp
exchange M062X
basis 6-31+G*
xc_grid 1
SMX_GAS_PHASE = TRUE
solvent_method sm12
$end

$smx
solvent water
charges mk
$end
--------------------------------------------------------------

             Standard Nuclear Orientation (Angstroms)
    I     Atom           X                Y                Z
 ----------------------------------------------------------------
    1      C      -1.2931460000     0.7005690000    -0.8362640000
    2      C      -2.4714270000     0.6259160000    -1.5813100000
    3      H      -3.4177690000     0.4009860000    -1.0959570000
    4      C      -2.4289970000     0.8476920000    -2.9519120000
    5      H      -3.3396000000     0.7983980000    -3.5407370000
    6      C      -1.2124200000     1.1289070000    -3.5845880000
    7      C      -1.2329890000     1.3652580000    -5.0652580000
    8      C      -0.0398820000     1.2011160000    -2.8286290000
    9      H       0.9103800000     1.4496220000    -3.2927350000
   10      C      -0.0788570000     0.9878900000    -1.4509350000
   11      H       0.8292340000     1.0572870000    -0.8612590000
   12      S      -1.3693920000     0.3575160000     0.9329590000
   13      O      -0.0300120000     0.7308540000     1.4593910000
   14      O      -2.4746810000     1.2475110000     1.4046320000
   15      N      -1.6092650000    -1.1689240000     1.1653980000
   16      H      -2.5771700000    -1.3788460000     0.9055860000
   17      N      -0.1072950000     1.1171960000    -5.7472860000
   18      O      -2.2636110000     1.7708490000    -5.6318520000
   19      C      -0.0345990000     1.3262620000    -7.1835610000
   20      H       0.9768100000     1.0924740000    -7.5128250000
   21      H      -0.2623520000     2.3664470000    -7.4298140000
   22      H      -0.7430200000     0.6780460000    -7.7072870000
   23      H       0.6902290000     0.7141630000    -5.2718560000
 ----------------------------------------------------------------

    9   -1043.3530261721      6.21e-06  Convergence criterion met
 Total energy in the final basis set =    -1043.3530261721
    5   -1043.3383302257      6.85e-06  Convergence criterion met
 Total energy in the final basis set =    -1043.4715995611

                    Orbital Energies (a.u.)
 --------------------------------------------------------------

 Alpha MOs
 -- Occupied --
-90.1427 -19.6287 -19.6270 -19.6269 -14.8059 -14.7323 -10.6719 -10.5961
-10.5872 -10.5851 -10.5825 -10.5822 -10.5806 -10.5789  -8.4510  -6.3733
 -6.3726  -6.3719  -1.2158  -1.1711  -1.1006  -1.0461  -0.9922  -0.9736
 -0.8891  -0.8710  -0.8141  -0.7500  -0.7154  -0.6905  -0.6703  -0.6411
 -0.6021  -0.5667  -0.5625  -0.5458  -0.5392  -0.5335  -0.5190  -0.5157
 -0.5097  -0.4788  -0.4656  -0.4609  -0.4517  -0.4312  -0.4244  -0.4021
 -0.3838  -0.3728  -0.3547  -0.3435  -0.3365  -0.3317  -0.3283  -0.3006

          Ground-State Mulliken Net Atomic Charges

     Atom                 Charge (a.u.)
  ----------------------------------------
      1 C                    -4.559219
      2 C                    -0.024368
      3 H                     0.257038
      4 C                     0.479612
      5 H                     0.280257
      6 C                     1.508782
      7 C                     1.701903
      8 C                     2.599568
      9 H                     0.294961
     10 C                    -2.086342
     11 H                     0.266189
     12 S                     0.462393
     13 O                    -0.882119
     14 O                    -0.728295
     15 N                    -0.947300
     16 H                     0.399065
     17 N                    -0.288833
     18 O                    -0.828878
     19 C                    -0.127704
     20 H                     0.271145
     21 H                     0.234991
     22 H                     0.232488
     23 H                     0.484667
  ----------------------------------------
  Sum of atomic charges =    -1.000000

                    Cartesian Multipole Moments
 -----------------------------------------------------------------
    Charge (ESU x 10^10)
                -4.8032
    Dipole Moment (Debye)
         X       9.9949      Y      -2.9543      Z      -8.2890
       Tot      13.3166
    Quadrupole Moments (Debye-Ang)
        XX    -107.6726     XY      14.9069     YY    -108.5813
        XZ     -18.1076     YZ       5.6219     ZZ    -104.9369

 Total job time:  12.43s(wall), 163.96s(cpu)
        *  Thank you very much for using Q-Chem.  Have a nice day.  *
