 Q-Chem 5.4 (devel), Q-Chem, Inc., Pleasanton, CA (2021)
 Q-Chem 5.4.1 for Intel X86 EM64T Linux

User input:
--------------------------------------------------------------
$molecule
-1  1
C -1.2063734225  0.6076905171 -0.6320167085
S -1.7007395766  0.3669334453  1.1418235129
O -1.7839688013 -1.1116934216  1.1986599571
O -0.5522122918  0.974859472  1.8435697324
N -3.0012252183  1.1609853915  1.3816589599
H -3.7955275456  0.6063706271  1.0534668288
F -2.1714156171  0.15992818 -1.4457248774
F -0.0799616957 -0.0514528848 -0.9271311069
F -1.007682831  1.9019956734 -0.9030102983
$end

$rem
jobtype sp
exchange M062X
basis 6-31+G*
xc_grid 1
SMX_GAS_PHASE = TRUE
solvent_method sm12
$end

$smx
solvent water
charges mk
$end
--------------------------------------------------------------

             Standard Nuclear Orientation (Angstroms)
    I     Atom           X                Y                Z
 ----------------------------------------------------------------
    1      C      -1.2063734225     0.6076905171    -0.6320167085
    2      S      -1.7007395766     0.3669334453     1.1418235129
    3      O      -1.7839688013    -1.1116934216     1.1986599571
    4      O      -0.5522122918     0.9748594720     1.8435697324
    5      N      -3.0012252183     1.1609853915     1.3816589599
    6      H      -3.7955275456     0.6063706271     1.0534668288
    7      F      -2.1714156171     0.1599281800    -1.4457248774
    8      F      -0.0799616957    -0.0514528848    -0.9271311069
    9      F      -1.0076828310     1.9019956734    -0.9030102983
 ----------------------------------------------------------------

    8    -941.4096541068      7.67e-06  Convergence criterion met
 Total energy in the final basis set =     -941.4096541068
    5    -941.4075061151      5.05e-06  Convergence criterion met
 Total energy in the final basis set =     -941.5009086994

                    Orbital Energies (a.u.)
 --------------------------------------------------------------

 Alpha MOs
 -- Occupied --
-90.1605 -25.3270 -25.3254 -25.3253 -19.6460 -19.6443 -14.7490 -10.8261
 -8.4690  -6.3911  -6.3906  -6.3900  -1.4921  -1.3990  -1.3981  -1.2376
 -1.1222  -0.9969  -0.8524  -0.7534  -0.7139  -0.7136  -0.6633  -0.5982
 -0.5951  -0.5808  -0.5577  -0.5538  -0.5509  -0.5404  -0.5338  -0.4465
 -0.4173  -0.4018  -0.3807  -0.3523  -0.3338

          Ground-State Mulliken Net Atomic Charges

     Atom                 Charge (a.u.)
  ----------------------------------------
      1 C                     0.898536
      2 S                     0.927186
      3 O                    -0.720684
      4 O                    -0.792575
      5 N                    -0.909493
      6 H                     0.426478
      7 F                    -0.267347
      8 F                    -0.287535
      9 F                    -0.274567
  ----------------------------------------
  Sum of atomic charges =    -1.000000

                    Cartesian Multipole Moments
 -----------------------------------------------------------------
    Charge (ESU x 10^10)
                -4.8032
    Dipole Moment (Debye)
         X       6.5587      Y      -2.4585      Z      -6.6134
       Tot       9.6331
    Quadrupole Moments (Debye-Ang)
        XX     -65.9439     XY       4.8692     YY     -65.6102
        XZ       9.9062     YZ      -4.5550     ZZ     -68.6994

 Total job time:  5.39s(wall), 42.86s(cpu)
        *  Thank you very much for using Q-Chem.  Have a nice day.  *
