 Q-Chem 5.4 (devel), Q-Chem, Inc., Pleasanton, CA (2021)
 Q-Chem 5.4.1 for Intel X86 EM64T Linux

User input:
--------------------------------------------------------------
$molecule
-1  1
S -1.740377  0.261739  1.267111
O -0.626298  0.881971  2.058152
O -3.010668  1.045244  1.326199
N -2.049417 -1.23067  1.629997
H -1.157432 -1.725953  1.707849
C -1.184225  0.397606 -0.431346
H -1.967255  0.004748 -1.082507
H -0.268893 -0.188297 -0.543399
H -0.990153  1.449011 -0.654835
$end

$rem
jobtype sp
exchange M062X
basis 6-31+G*
xc_grid 1
SMX_GAS_PHASE = TRUE
solvent_method sm12
$end

$smx
solvent water
charges mk
$end
--------------------------------------------------------------

             Standard Nuclear Orientation (Angstroms)
    I     Atom           X                Y                Z
 ----------------------------------------------------------------
    1      S      -1.7403770000     0.2617390000     1.2671110000
    2      O      -0.6262980000     0.8819710000     2.0581520000
    3      O      -3.0106680000     1.0452440000     1.3261990000
    4      N      -2.0494170000    -1.2306700000     1.6299970000
    5      H      -1.1574320000    -1.7259530000     1.7078490000
    6      C      -1.1842250000     0.3976060000    -0.4313460000
    7      H      -1.9672550000     0.0047480000    -1.0825070000
    8      H      -0.2688930000    -0.1882970000    -0.5433990000
    9      H      -0.9901530000     1.4490110000    -0.6548350000
 ----------------------------------------------------------------

    8    -643.7429669427      6.76e-06  Convergence criterion met
 Total energy in the final basis set =     -643.7429669427
    6    -643.7366888920      4.43e-06  Convergence criterion met
 Total energy in the final basis set =     -643.8585379311

                    Orbital Energies (a.u.)
 --------------------------------------------------------------

 Alpha MOs
 -- Occupied --
-90.1399 -19.6257 -19.6256 -14.7307 -10.5770  -8.4488  -6.3708  -6.3702
 -6.3695  -1.2116  -1.0955  -0.9735  -0.8476  -0.6769  -0.5809  -0.5539
 -0.5418  -0.4964  -0.4893  -0.4253  -0.3988  -0.3777  -0.3621  -0.3383
 -0.3097

          Ground-State Mulliken Net Atomic Charges

     Atom                 Charge (a.u.)
  ----------------------------------------
      1 S                     0.854466
      2 O                    -0.802249
      3 O                    -0.867604
      4 N                    -1.044964
      5 H                     0.399414
      6 C                    -0.386867
      7 H                     0.281102
      8 H                     0.285599
      9 H                     0.281103
  ----------------------------------------
  Sum of atomic charges =    -1.000000

                    Cartesian Multipole Moments
 -----------------------------------------------------------------
    Charge (ESU x 10^10)
                -4.8032
    Dipole Moment (Debye)
         X      11.4972      Y      -1.8682      Z     -10.7481
       Tot      15.8492
    Quadrupole Moments (Debye-Ang)
        XX     -74.8151     XY       0.4895     YY     -48.4171
        XZ      20.2370     YZ      -4.6223     ZZ     -60.0725

 Total job time:  3.87s(wall), 28.43s(cpu)
        *  Thank you very much for using Q-Chem.  Have a nice day.  *
