 Q-Chem 5.4 (devel), Q-Chem, Inc., Pleasanton, CA (2021)
 Q-Chem 5.4.1 for Intel X86 EM64T Linux

User input:
--------------------------------------------------------------
$molecule
-1  1
C -0.5740456875  1.0516318595 -1.449462682
S -0.6568940675  1.69525928  0.2184499268
O -2.0998504598  1.6316549327  0.5552115666
O  0.1963142421  0.7171304178  0.9450139201
N -0.1793708783  3.1725420722  0.2336460742
H  0.8379490953  3.1846834233  0.1224125576
O -1.3329907978  1.6976219959 -2.3855570441
C -1.0967123085  1.1093962489 -3.5766033229
C -0.1900406514  0.1092554967 -3.4060750761
C  0.1571753388  0.0605256809 -2.0153061424
S  0.4003979494 -0.9371183182 -4.678539774
C -0.3601954039 -2.5045015231 -4.3947970549
O  1.8505772414 -1.0916945862 -4.4903599131
O -0.0965452967 -0.3905712728 -5.950240354
C  0.2915366027 -3.4431769918 -3.5968760537
C -0.3374056993 -4.6543035297 -3.3446714966
C -1.5992538099 -4.9116156573 -3.8896110445
C -2.2591676797 -3.9660054863 -4.6959917138
C -1.6239452024 -2.7518574656 -4.930855206
O -2.2431305942 -6.0844986022 -3.6525914289
C -3.614222018 -4.2605004778 -5.2855951289
N -3.5539950794 -5.0754518814 -6.5069989934
C -2.9211521938 -4.3183609495 -7.5846029755
C -4.9228701946 -5.4004066911 -6.9024804759
H -1.6300407041  1.4941910788 -4.4339978888
H  0.8464064636 -0.6125923396 -1.5239962311
H  1.2729237 -3.2364879159 -3.1813501923
H  0.1423061378 -5.4075237518 -2.7258274385
H -2.1202028981 -2.0015504002 -5.5426910259
H -1.7074918841 -6.6476350036 -3.067883832
H -4.1222982624 -3.3020075262 -5.4941536439
H -4.2202818875 -4.8002426992 -4.5520953157
H -1.8790131831 -4.0967374019 -7.3415278333
H -3.4460896949 -3.365250977 -7.7761779846
H -2.9376253391 -4.9119450264 -8.5024692566
H -5.4148689277 -5.9725093351 -6.1111682224
H -4.9099488871 -6.0051591468 -7.8130229343
H -5.5190630805 -4.4916295301 -7.0983933652
$end

$rem
jobtype sp
exchange M062X
basis 6-31+G*
SMX_GAS_PHASE = TRUE
solvent_method sm12
$end

$smx
solvent water
charges mk
$end
--------------------------------------------------------------

             Standard Nuclear Orientation (Angstroms)
    I     Atom           X                Y                Z
 ----------------------------------------------------------------
    1      C      -0.5740456875     1.0516318595    -1.4494626820
    2      S      -0.6568940675     1.6952592800     0.2184499268
    3      O      -2.0998504598     1.6316549327     0.5552115666
    4      O       0.1963142421     0.7171304178     0.9450139201
    5      N      -0.1793708783     3.1725420722     0.2336460742
    6      H       0.8379490953     3.1846834233     0.1224125576
    7      O      -1.3329907978     1.6976219959    -2.3855570441
    8      C      -1.0967123085     1.1093962489    -3.5766033229
    9      C      -0.1900406514     0.1092554967    -3.4060750761
   10      C       0.1571753388     0.0605256809    -2.0153061424
   11      S       0.4003979494    -0.9371183182    -4.6785397740
   12      C      -0.3601954039    -2.5045015231    -4.3947970549
   13      O       1.8505772414    -1.0916945862    -4.4903599131
   14      O      -0.0965452967    -0.3905712728    -5.9502403540
   15      C       0.2915366027    -3.4431769918    -3.5968760537
   16      C      -0.3374056993    -4.6543035297    -3.3446714966
   17      C      -1.5992538099    -4.9116156573    -3.8896110445
   18      C      -2.2591676797    -3.9660054863    -4.6959917138
   19      C      -1.6239452024    -2.7518574656    -4.9308552060
   20      O      -2.2431305942    -6.0844986022    -3.6525914289
   21      C      -3.6142220180    -4.2605004778    -5.2855951289
   22      N      -3.5539950794    -5.0754518814    -6.5069989934
   23      C      -2.9211521938    -4.3183609495    -7.5846029755
   24      C      -4.9228701946    -5.4004066911    -6.9024804759
   25      H      -1.6300407041     1.4941910788    -4.4339978888
   26      H       0.8464064636    -0.6125923396    -1.5239962311
   27      H       1.2729237000    -3.2364879159    -3.1813501923
   28      H       0.1423061378    -5.4075237518    -2.7258274385
   29      H      -2.1202028981    -2.0015504002    -5.5426910259
   30      H      -1.7074918841    -6.6476350036    -3.0678838320
   31      H      -4.1222982624    -3.3020075262    -5.4941536439
   32      H      -4.2202818875    -4.8002426992    -4.5520953157
   33      H      -1.8790131831    -4.0967374019    -7.3415278333
   34      H      -3.4460896949    -3.3652509770    -7.7761779846
   35      H      -2.9376253391    -4.9119450264    -8.5024692566
   36      H      -5.4148689277    -5.9725093351    -6.1111682224
   37      H      -4.9099488871    -6.0051591468    -7.8130229343
   38      H      -5.5190630805    -4.4916295301    -7.0983933652
 ----------------------------------------------------------------

    9   -1861.0324121401      3.36e-06  Convergence criterion met
 Total energy in the final basis set =    -1861.0324121401
    5   -1861.0195041903      3.99e-06  Convergence criterion met
 Total energy in the final basis set =    -1861.1558330428

                    Orbital Energies (a.u.)
 --------------------------------------------------------------

 Alpha MOs
 -- Occupied --
-90.1651 -90.1514 -19.7538 -19.6936 -19.6610 -19.6596 -19.6355 -19.6332
-14.7667 -14.7371 -10.6498 -10.6447 -10.6442 -10.6046 -10.5999 -10.5920
-10.5898 -10.5887 -10.5861 -10.5802 -10.5772 -10.5691 -10.5669  -8.4814
 -8.4634  -6.4034  -6.4029  -6.4023  -6.3858  -6.3855  -6.3846  -1.2827
 -1.2490  -1.2247  -1.2058  -1.1419  -1.1096  -1.0443  -0.9932  -0.9843
 -0.9560  -0.9004  -0.8936  -0.8806  -0.8102  -0.8023  -0.7981  -0.7476
 -0.7373  -0.7205  -0.7017  -0.6832  -0.6534  -0.6455  -0.6393  -0.6100
 -0.5898  -0.5883  -0.5769  -0.5696  -0.5586  -0.5548  -0.5538  -0.5479
 -0.5419  -0.5354  -0.5256  -0.5105  -0.5091  -0.5073  -0.4909  -0.4813
 -0.4727  -0.4609  -0.4504  -0.4431  -0.4363  -0.4348  -0.4308  -0.4246
 -0.4230  -0.4126  -0.4091  -0.4021  -0.3968  -0.3848  -0.3793  -0.3759
 -0.3490  -0.3374  -0.3318  -0.3091  -0.3004  -0.2950

          Ground-State Mulliken Net Atomic Charges

     Atom                 Charge (a.u.)
  ----------------------------------------
      1 C                    -2.774853
      2 S                     0.739618
      3 O                    -0.847438
      4 O                    -0.773620
      5 N                    -1.001027
      6 H                     0.411067
      7 O                    -0.258208
      8 C                     0.600392
      9 C                     0.419509
     10 C                     1.083354
     11 S                     0.559387
     12 C                    -1.734761
     13 O                    -0.569103
     14 O                    -0.527697
     15 C                    -0.566790
     16 C                     1.008078
     17 C                     0.358278
     18 C                     0.503258
     19 C                    -0.324965
     20 O                    -0.673453
     21 C                     0.669765
     22 N                    -0.426362
     23 C                    -0.489593
     24 C                    -0.331770
     25 H                     0.357423
     26 H                     0.323891
     27 H                     0.279267
     28 H                     0.296388
     29 H                     0.273237
     30 H                     0.586593
     31 H                     0.225977
     32 H                     0.238518
     33 H                     0.234913
     34 H                     0.221345
     35 H                     0.231205
     36 H                     0.228613
     37 H                     0.229117
     38 H                     0.220436
  ----------------------------------------
  Sum of atomic charges =    -1.000010

                    Cartesian Multipole Moments
 -----------------------------------------------------------------
    Charge (ESU x 10^10)
                -4.8033
    Dipole Moment (Debye)
         X       1.5909      Y     -12.4068      Z       0.8240
       Tot      12.5355
    Quadrupole Moments (Debye-Ang)
        XX    -161.9140     XY      14.6712     YY    -153.5923
        XZ      25.4328     YZ      -4.8878     ZZ    -193.5791

 Total job time:  60.30s(wall), 711.98s(cpu)
        *  Thank you very much for using Q-Chem.  Have a nice day.  *
