 Q-Chem 5.4 (devel), Q-Chem, Inc., Pleasanton, CA (2021)
 Q-Chem 5.4.1 for Intel X86 EM64T Linux

User input:
--------------------------------------------------------------
$molecule
-1  1
C -1.4358182181  1.2801104751 -1.8980794902
S -1.7195869242  1.442587687 -0.1452345428
O -0.803127314  2.5317629663  0.2794958156
O -3.1645904907  1.8023954898 -0.1161701599
N -1.3250641971  0.126330496  0.5835428549
H -2.0264101557 -0.5850551184  0.3611006715
C -2.2729523982  1.3090509897 -2.9681827545
C -1.4416474146  1.0502569973 -4.1158173413
C -0.1781287426  0.885098998 -3.6089761756
O -0.1285838677  1.0161178223 -2.2655648747
C -1.4398463374  0.9236228047 -5.5475073352
C -0.1931914318  0.672890183 -6.0385571848
S  1.0467311606  0.5860853162 -4.7798301814
H -3.3372234641  1.4949033304 -2.931966343
H -2.310127727  1.0124464497 -6.1887965352
C  0.1945768433  0.4584146154 -7.4691698667
N  1.1757995379  1.4297686012 -7.9584162532
C  0.6195026532  2.785388582 -7.9243020783
C  1.6040419929  3.77743356 -8.5144178658
O  1.9398756913  3.4353819459 -9.855981376
C  2.4882191708  2.1218546052 -9.9100262072
C  1.515157868  1.1036202945 -9.346725254
H -0.7344202889  0.5004343557 -8.0654507047
H  0.6228921495 -0.5417237419 -7.6024263125
H  0.4052386895  3.0688383946 -6.8890371191
H -0.3285101491  2.8267811139 -8.4926197691
H  2.5217115704  3.8087121494 -7.909065242
H  1.1645954246  4.7767899261 -8.5449148936
H  3.4324583731  2.1005833605 -9.3466534162
H  2.6964283609  1.9096266398 -10.9609690224
H  1.9674546347  0.1072936867 -9.3830503944
H  0.6048280006  1.0890770239 -9.9739766482
$end

$rem
jobtype sp
exchange M062X
basis 6-31G*
SMX_GAS_PHASE = TRUE
solvent_method sm12
$end

$smx
solvent water
charges mk
$end
--------------------------------------------------------------

             Standard Nuclear Orientation (Angstroms)
    I     Atom           X                Y                Z
 ----------------------------------------------------------------
    1      C      -1.4358182181     1.2801104751    -1.8980794902
    2      S      -1.7195869242     1.4425876870    -0.1452345428
    3      O      -0.8031273140     2.5317629663     0.2794958156
    4      O      -3.1645904907     1.8023954898    -0.1161701599
    5      N      -1.3250641971     0.1263304960     0.5835428549
    6      H      -2.0264101557    -0.5850551184     0.3611006715
    7      C      -2.2729523982     1.3090509897    -2.9681827545
    8      C      -1.4416474146     1.0502569973    -4.1158173413
    9      C      -0.1781287426     0.8850989980    -3.6089761756
   10      O      -0.1285838677     1.0161178223    -2.2655648747
   11      C      -1.4398463374     0.9236228047    -5.5475073352
   12      C      -0.1931914318     0.6728901830    -6.0385571848
   13      S       1.0467311606     0.5860853162    -4.7798301814
   14      H      -3.3372234641     1.4949033304    -2.9319663430
   15      H      -2.3101277270     1.0124464497    -6.1887965352
   16      C       0.1945768433     0.4584146154    -7.4691698667
   17      N       1.1757995379     1.4297686012    -7.9584162532
   18      C       0.6195026532     2.7853885820    -7.9243020783
   19      C       1.6040419929     3.7774335600    -8.5144178658
   20      O       1.9398756913     3.4353819459    -9.8559813760
   21      C       2.4882191708     2.1218546052    -9.9100262072
   22      C       1.5151578680     1.1036202945    -9.3467252540
   23      H      -0.7344202889     0.5004343557    -8.0654507047
   24      H       0.6228921495    -0.5417237419    -7.6024263125
   25      H       0.4052386895     3.0688383946    -6.8890371191
   26      H      -0.3285101491     2.8267811139    -8.4926197691
   27      H       2.5217115704     3.8087121494    -7.9090652420
   28      H       1.1645954246     4.7767899261    -8.5449148936
   29      H       3.4324583731     2.1005833605    -9.3466534162
   30      H       2.6964283609     1.9096266398   -10.9609690224
   31      H       1.9674546347     0.1072936867    -9.3830503944
   32      H       0.6048280006     1.0890770239    -9.9739766482
 ----------------------------------------------------------------

    9   -1633.2600791068      4.12e-06  Convergence criterion met
 Total energy in the final basis set =    -1633.2600791068
    5   -1633.2488413748      6.59e-06  Convergence criterion met
 Total energy in the final basis set =    -1633.3762532395

                    Orbital Energies (a.u.)
 --------------------------------------------------------------

 Alpha MOs
 -- Occupied --
-90.1267 -89.9601 -19.7280 -19.6424 -19.6088 -19.6047 -14.7594 -14.7101
-10.6334 -10.6209 -10.5909 -10.5906 -10.5903 -10.5866 -10.5694 -10.5681
-10.5671 -10.5660 -10.5626  -8.4387  -8.3088  -6.3612  -6.3609  -6.3600
 -6.2292  -6.2272  -6.2243  -1.2544  -1.1981  -1.1590  -1.0825  -1.0411
 -0.9883  -0.9585  -0.9100  -0.8708  -0.8632  -0.8218  -0.8097  -0.7482
 -0.7405  -0.7009  -0.6800  -0.6532  -0.6417  -0.6213  -0.5887  -0.5812
 -0.5645  -0.5597  -0.5504  -0.5416  -0.5414  -0.5348  -0.5155  -0.5146
 -0.5063  -0.4866  -0.4842  -0.4644  -0.4623  -0.4427  -0.4329  -0.4262
 -0.4192  -0.4123  -0.4091  -0.4021  -0.3848  -0.3746  -0.3732  -0.3586
 -0.3512  -0.3284  -0.3253  -0.3036  -0.2941  -0.2890  -0.2657

          Ground-State Mulliken Net Atomic Charges

     Atom                 Charge (a.u.)
  ----------------------------------------
      1 C                    -0.035219
      2 S                     1.012477
      3 O                    -0.702476
      4 O                    -0.673598
      5 N                    -0.854916
      6 H                     0.322664
      7 C                    -0.206012
      8 C                     0.015176
      9 C                     0.073320
     10 O                    -0.523467
     11 C                    -0.100192
     12 C                    -0.205435
     13 S                     0.291753
     14 H                     0.245293
     15 H                     0.247272
     16 C                    -0.146602
     17 N                    -0.474269
     18 C                    -0.158183
     19 C                    -0.065949
     20 O                    -0.559687
     21 C                    -0.064236
     22 C                    -0.142359
     23 H                     0.167261
     24 H                     0.202463
     25 H                     0.177644
     26 H                     0.141132
     27 H                     0.152628
     28 H                     0.189176
     29 H                     0.153676
     30 H                     0.191147
     31 H                     0.186805
     32 H                     0.142715
  ----------------------------------------
  Sum of atomic charges =    -1.000000

                    Cartesian Multipole Moments
 -----------------------------------------------------------------
    Charge (ESU x 10^10)
                -4.8032
    Dipole Moment (Debye)
         X       5.5214      Y      -9.5065      Z      -3.5048
       Tot      11.5388
    Quadrupole Moments (Debye-Ang)
        XX    -140.8036     XY       9.5779     YY    -149.4934
        XZ      11.9930     YZ      11.1353     ZZ    -121.6540

 Total job time:  15.55s(wall), 205.63s(cpu)
        *  Thank you very much for using Q-Chem.  Have a nice day.  *
