 Q-Chem 5.4 (devel), Q-Chem, Inc., Pleasanton, CA (2021)
 Q-Chem 5.4.1 for Intel X86 EM64T Linux

User input:
--------------------------------------------------------------
$molecule
-1  1
C -1.351873  0.722876 -0.890351
C -2.5348  0.899646 -1.602729
H -3.485053  0.955234 -1.081392
C -2.497006  1.014454 -2.991674
H -3.411236  1.158867 -3.558228
C -1.267949  0.944013 -3.638827
Cl -1.213651  1.088788 -5.380995
C -0.077964  0.763793 -2.937804
H  0.870006  0.71464 -3.463646
C -0.125834  0.651134 -1.551282
H  0.795499  0.513591 -0.992134
S -1.398258  0.483105  0.895249
O -0.235614  1.285971  1.384434
O -2.719767  1.016675  1.32
N -1.330111 -1.042902  1.226961
H -0.37796 -1.364657  1.03121
$end

$rem
jobtype sp
exchange M062X
basis 6-31+G*
SMX_GAS_PHASE = TRUE
solvent_method sm12
$end

$smx
solvent water
charges mk
$end
--------------------------------------------------------------

             Standard Nuclear Orientation (Angstroms)
    I     Atom           X                Y                Z
 ----------------------------------------------------------------
    1      C      -1.3518730000     0.7228760000    -0.8903510000
    2      C      -2.5348000000     0.8996460000    -1.6027290000
    3      H      -3.4850530000     0.9552340000    -1.0813920000
    4      C      -2.4970060000     1.0144540000    -2.9916740000
    5      H      -3.4112360000     1.1588670000    -3.5582280000
    6      C      -1.2679490000     0.9440130000    -3.6388270000
    7      Cl     -1.2136510000     1.0887880000    -5.3809950000
    8      C      -0.0779640000     0.7637930000    -2.9378040000
    9      H       0.8700060000     0.7146400000    -3.4636460000
   10      C      -0.1258340000     0.6511340000    -1.5512820000
   11      H       0.7954990000     0.5135910000    -0.9921340000
   12      S      -1.3982580000     0.4831050000     0.8952490000
   13      O      -0.2356140000     1.2859710000     1.3844340000
   14      O      -2.7197670000     1.0166750000     1.3200000000
   15      N      -1.3301110000    -1.0429020000     1.2269610000
   16      H      -0.3779600000    -1.3646570000     1.0312100000
 ----------------------------------------------------------------

    8   -1294.9756194923      8.17e-06  Convergence criterion met
 Total energy in the final basis set =    -1294.9756194923
    5   -1294.9651057242      7.21e-06  Convergence criterion met
 Total energy in the final basis set =    -1295.0788428555

                    Orbital Energies (a.u.)
 --------------------------------------------------------------

 Alpha MOs
 -- Occupied --
******** -90.1388 -19.6277 -19.6271 -14.7308 -10.6356 -10.5936 -10.5853
-10.5846 -10.5845 -10.5829  -9.8350  -8.4519  -7.5590  -7.5528  -7.5527
 -6.3744  -6.3736  -6.3730  -1.2152  -1.1004  -1.0176  -0.9760  -0.9556
 -0.8758  -0.8546  -0.7326  -0.7233  -0.6738  -0.6210  -0.5727  -0.5634
 -0.5532  -0.5380  -0.5249  -0.5170  -0.4871  -0.4614  -0.4407  -0.4314
 -0.4206  -0.4003  -0.3945  -0.3826  -0.3679  -0.3401  -0.3346  -0.3287
 -0.2965

          Ground-State Mulliken Net Atomic Charges

     Atom                 Charge (a.u.)
  ----------------------------------------
      1 C                    -3.694827
      2 C                    -1.465312
      3 H                     0.263183
      4 C                     1.106931
      5 H                     0.293025
      6 C                     1.410185
      7 Cl                    0.508013
      8 C                     1.190021
      9 H                     0.296412
     10 C                     0.565011
     11 H                     0.267297
     12 S                     0.467978
     13 O                    -0.759582
     14 O                    -0.884356
     15 N                    -0.964247
     16 H                     0.400268
  ----------------------------------------
  Sum of atomic charges =    -1.000000

                    Cartesian Multipole Moments
 -----------------------------------------------------------------
    Charge (ESU x 10^10)
                -4.8032
    Dipole Moment (Debye)
         X       8.3029      Y      -2.5196      Z      -7.1716
       Tot      11.2569
    Quadrupole Moments (Debye-Ang)
        XX     -94.4474     XY      -0.5383     YY     -93.3420
        XZ      11.9621     YZ      -3.0036     ZZ    -103.2589

 Total job time:  11.30s(wall), 139.15s(cpu)
        *  Thank you very much for using Q-Chem.  Have a nice day.  *
