 Q-Chem 5.4 (devel), Q-Chem, Inc., Pleasanton, CA (2021)
 Q-Chem 5.4.1 for Intel X86 EM64T Linux

User input:
--------------------------------------------------------------
$molecule
-1  1
C -1.6074863958  0.6071409413 -1.3823863733
S -2.1319026578  0.487027875  0.3330148849
O -2.8690729134  1.7525410206  0.5820719043
O -3.0098145503 -0.7191791076  0.3191901116
N -0.872244533  0.4162547597  1.2352259044
H -0.4670953494 -0.5200551974  1.1597356892
S -2.7330925279  0.4674022711 -2.6928292436
C -1.4981147179  0.7225854394 -3.8532193601
C -0.2923119495  0.9074587771 -3.2386970986
C -0.3364964792  0.8409829233 -1.8129975813
S  1.2008295541  1.1375220972 -4.1453544871
C  2.0422164536 -0.4209719998 -4.0339403124
O  2.0072721714  2.1463429783 -3.4427472494
O  0.8366125728  1.3737080704 -5.5505456212
C  3.0189382054 -0.5958271351 -3.0587056901
C  3.6455356799 -1.8372502742 -2.9647861719
C  3.2975829285 -2.8832586968 -3.8232639144
C  2.3021432609 -2.6768476958 -4.7876777392
C  1.6659090245 -1.4467300323 -4.9015494332
H -1.7155737881  0.717044019 -4.9148854657
H  0.5176681105  0.9595263479 -1.154464355
H  3.2899779289  0.21753075 -2.3927269139
H  4.4171443785 -1.9926536176 -2.2150588156
H  0.8910557281 -1.2876980437 -5.6463015087
C  3.9836596012 -4.2237428472 -3.7179831947
N  4.9441586166 -4.4583362023 -4.8016793324
H  2.0201602224 -3.4896420527 -5.4518097595
H  3.2312696389 -5.0181010483 -3.7667235798
H  4.4851893007 -4.2986078316 -2.7372804555
C  6.065902026 -3.5185743773 -4.7083300413
C  5.4742360729 -5.8197192928 -4.67487426
C  6.5203101026 -6.0878200502 -5.7399247123
C  7.10584694 -3.8245693097 -5.77018146
O  7.5942058207 -5.156719785 -5.6448313895
H  6.5355831863 -3.5775528436 -3.7086512131
H  5.7042547648 -2.4957804825 -4.8523486859
H  4.6538577658 -6.5367789847 -4.7807815278
H  5.9296286104 -5.9657174904 -3.6780092371
H  6.0721239919 -6.0219721195 -6.7420646208
H  6.952192607 -7.0823275752 -5.6082997884
H  7.9667592471 -3.161460006 -5.6608831259
H  6.6762653498 -3.690088171 -6.7736347757
$end

$rem
jobtype sp
exchange M062X
basis 6-31G*
SMX_GAS_PHASE = TRUE
solvent_method sm12
$end

$smx
solvent water
charges mk
$end
--------------------------------------------------------------

             Standard Nuclear Orientation (Angstroms)
    I     Atom           X                Y                Z
 ----------------------------------------------------------------
    1      C      -1.6074863958     0.6071409413    -1.3823863733
    2      S      -2.1319026578     0.4870278750     0.3330148849
    3      O      -2.8690729134     1.7525410206     0.5820719043
    4      O      -3.0098145503    -0.7191791076     0.3191901116
    5      N      -0.8722445330     0.4162547597     1.2352259044
    6      H      -0.4670953494    -0.5200551974     1.1597356892
    7      S      -2.7330925279     0.4674022711    -2.6928292436
    8      C      -1.4981147179     0.7225854394    -3.8532193601
    9      C      -0.2923119495     0.9074587771    -3.2386970986
   10      C      -0.3364964792     0.8409829233    -1.8129975813
   11      S       1.2008295541     1.1375220972    -4.1453544871
   12      C       2.0422164536    -0.4209719998    -4.0339403124
   13      O       2.0072721714     2.1463429783    -3.4427472494
   14      O       0.8366125728     1.3737080704    -5.5505456212
   15      C       3.0189382054    -0.5958271351    -3.0587056901
   16      C       3.6455356799    -1.8372502742    -2.9647861719
   17      C       3.2975829285    -2.8832586968    -3.8232639144
   18      C       2.3021432609    -2.6768476958    -4.7876777392
   19      C       1.6659090245    -1.4467300323    -4.9015494332
   20      H      -1.7155737881     0.7170440190    -4.9148854657
   21      H       0.5176681105     0.9595263479    -1.1544643550
   22      H       3.2899779289     0.2175307500    -2.3927269139
   23      H       4.4171443785    -1.9926536176    -2.2150588156
   24      H       0.8910557281    -1.2876980437    -5.6463015087
   25      C       3.9836596012    -4.2237428472    -3.7179831947
   26      N       4.9441586166    -4.4583362023    -4.8016793324
   27      H       2.0201602224    -3.4896420527    -5.4518097595
   28      H       3.2312696389    -5.0181010483    -3.7667235798
   29      H       4.4851893007    -4.2986078316    -2.7372804555
   30      C       6.0659020260    -3.5185743773    -4.7083300413
   31      C       5.4742360729    -5.8197192928    -4.6748742600
   32      C       6.5203101026    -6.0878200502    -5.7399247123
   33      C       7.1058469400    -3.8245693097    -5.7701814600
   34      O       7.5942058207    -5.1567197850    -5.6448313895
   35      H       6.5355831863    -3.5775528436    -3.7086512131
   36      H       5.7042547648    -2.4957804825    -4.8523486859
   37      H       4.6538577658    -6.5367789847    -4.7807815278
   38      H       5.9296286104    -5.9657174904    -3.6780092371
   39      H       6.0721239919    -6.0219721195    -6.7420646208
   40      H       6.9521926070    -7.0823275752    -5.6082997884
   41      H       7.9667592471    -3.1614600060    -5.6608831259
   42      H       6.6762653498    -3.6900881710    -6.7736347757
 ----------------------------------------------------------------

    9   -2261.3381345533      3.76e-06  Convergence criterion met
 Total energy in the final basis set =    -2261.3381345533
    5   -2261.3278066452      6.26e-06  Convergence criterion met
 Total energy in the final basis set =    -2261.4538248507

                    Orbital Energies (a.u.)
 --------------------------------------------------------------

 Alpha MOs
 -- Occupied --
-90.1491 -90.1275 -89.9735 -19.6464 -19.6452 -19.6425 -19.6061 -19.6041
-14.7584 -14.7134 -10.6100 -10.6035 -10.5969 -10.5951 -10.5908 -10.5906
-10.5824 -10.5786 -10.5772 -10.5767 -10.5750 -10.5687 -10.5678 -10.5668
-10.5665  -8.4666  -8.4395  -8.3226  -6.3885  -6.3881  -6.3876  -6.3618
 -6.3616  -6.3609  -6.2427  -6.2405  -6.2385  -1.2351  -1.1987  -1.1593
 -1.1277  -1.0798  -1.0390  -1.0135  -0.9836  -0.9624  -0.9014  -0.8711
 -0.8691  -0.8620  -0.8512  -0.8203  -0.7735  -0.7405  -0.7321  -0.7166
 -0.7104  -0.6790  -0.6496  -0.6472  -0.6337  -0.6234  -0.6018  -0.5811
 -0.5676  -0.5605  -0.5554  -0.5444  -0.5412  -0.5376  -0.5353  -0.5266
 -0.5192  -0.5170  -0.5062  -0.5022  -0.4954  -0.4896  -0.4883  -0.4770
 -0.4630  -0.4504  -0.4438  -0.4383  -0.4327  -0.4197  -0.4158  -0.4128
 -0.4108  -0.4069  -0.3993  -0.3878  -0.3844  -0.3750  -0.3740  -0.3681
 -0.3478  -0.3371  -0.3293  -0.3233  -0.3226  -0.3174  -0.3061  -0.2993
 -0.2907

          Ground-State Mulliken Net Atomic Charges

     Atom                 Charge (a.u.)
  ----------------------------------------
      1 C                    -0.456451
      2 S                     1.051991
      3 O                    -0.700397
      4 O                    -0.685769
      5 N                    -0.854505
      6 H                     0.329509
      7 S                     0.363685
      8 C                    -0.344831
      9 C                    -0.142628
     10 C                    -0.094975
     11 S                     1.134418
     12 C                    -0.230794
     13 O                    -0.637665
     14 O                    -0.623637
     15 C                    -0.186425
     16 C                    -0.181929
     17 C                     0.111207
     18 C                    -0.171417
     19 C                    -0.168292
     20 H                     0.313021
     21 H                     0.243867
     22 H                     0.234680
     23 H                     0.222216
     24 H                     0.232824
     25 C                    -0.184239
     26 N                    -0.473253
     27 H                     0.222825
     28 H                     0.192522
     29 H                     0.153406
     30 C                    -0.159736
     31 C                    -0.146221
     32 C                    -0.065990
     33 C                    -0.066350
     34 O                    -0.561897
     35 H                     0.136976
     36 H                     0.181510
     37 H                     0.187015
     38 H                     0.140777
     39 H                     0.153046
     40 H                     0.189594
     41 H                     0.189231
     42 H                     0.153081
  ----------------------------------------
  Sum of atomic charges =    -1.000000

                    Cartesian Multipole Moments
 -----------------------------------------------------------------
    Charge (ESU x 10^10)
                -4.8032
    Dipole Moment (Debye)
         X       9.5726      Y      -9.5763      Z      -0.7890
       Tot      13.5633
    Quadrupole Moments (Debye-Ang)
        XX    -212.2665     XY      -0.3364     YY    -175.5438
        XZ      27.7205     YZ      19.5458     ZZ    -196.2684

 Total job time:  24.49s(wall), 344.12s(cpu)
        *  Thank you very much for using Q-Chem.  Have a nice day.  *
