 Q-Chem 5.4 (devel), Q-Chem, Inc., Pleasanton, CA (2021)
 Q-Chem 5.4.1 for Intel X86 EM64T Linux

User input:
--------------------------------------------------------------
$molecule
-1  1
C -1.5721811353  0.9505709011 -0.6182101383
S -1.756448702  0.5327645399  1.1283482393
O -3.2234234606  0.5965318428  1.3308551537
O -1.1670256031 -0.8305603095  1.1899627556
N -1.0552571391  1.6161786144  1.9908361306
H -0.0443218808  1.4620553653  1.9453646215
S -2.7468525641  1.9315498294 -1.402487597
C -1.7961627131  1.9857493508 -2.8381245716
C -0.6317891427  1.2681185867 -2.6760402141
C -0.486515624  0.6641065591 -1.4049169813
C -2.2508402455  2.6986552461 -4.0460689088
S  0.5343444227  1.1196339694 -3.9999594455
O  0.2161893196 -0.0830576604 -4.7860383127
O  1.8903138341  1.2265368379 -3.4431360363
H  0.3631736795  0.0683525344 -1.0888174703
C -1.3563790989  2.6383369734 -5.2647354107
C  0.1371006511  2.5755299527 -4.9538430529
O -3.3260293518  3.2775698251 -4.0614995761
H -1.5547086742  3.5226725533 -5.8750419278
H -1.6639784816  1.760056118 -5.8473460873
H  0.478119897  3.4298232456 -4.3617601322
H  0.7352800128  2.5034261244 -5.8674220378
$end

$rem
jobtype sp
exchange M062X
basis 6-31+G*
SMX_GAS_PHASE = TRUE
solvent_method sm12
$end

$smx
solvent water
charges mk
$end
--------------------------------------------------------------

             Standard Nuclear Orientation (Angstroms)
    I     Atom           X                Y                Z
 ----------------------------------------------------------------
    1      C      -1.5721811353     0.9505709011    -0.6182101383
    2      S      -1.7564487020     0.5327645399     1.1283482393
    3      O      -3.2234234606     0.5965318428     1.3308551537
    4      O      -1.1670256031    -0.8305603095     1.1899627556
    5      N      -1.0552571391     1.6161786144     1.9908361306
    6      H      -0.0443218808     1.4620553653     1.9453646215
    7      S      -2.7468525641     1.9315498294    -1.4024875970
    8      C      -1.7961627131     1.9857493508    -2.8381245716
    9      C      -0.6317891427     1.2681185867    -2.6760402141
   10      C      -0.4865156240     0.6641065591    -1.4049169813
   11      C      -2.2508402455     2.6986552461    -4.0460689088
   12      S       0.5343444227     1.1196339694    -3.9999594455
   13      O       0.2161893196    -0.0830576604    -4.7860383127
   14      O       1.8903138341     1.2265368379    -3.4431360363
   15      H       0.3631736795     0.0683525344    -1.0888174703
   16      C      -1.3563790989     2.6383369734    -5.2647354107
   17      C       0.1371006511     2.5755299527    -4.9538430529
   18      O      -3.3260293518     3.2775698251    -4.0614995761
   19      H      -1.5547086742     3.5226725533    -5.8750419278
   20      H      -1.6639784816     1.7600561180    -5.8473460873
   21      H       0.4781198970     3.4298232456    -4.3617601322
   22      H       0.7352800128     2.5034261244    -5.8674220378
 ----------------------------------------------------------------

    9   -1895.3417257844      6.99e-06  Convergence criterion met
 Total energy in the final basis set =    -1895.3417257844
    5   -1895.3270904570      8.97e-06  Convergence criterion met
 Total energy in the final basis set =    -1895.4463942006

                    Orbital Energies (a.u.)
 --------------------------------------------------------------

 Alpha MOs
 -- Occupied --
-90.1631 -90.1519 -89.9935 -19.6699 -19.6641 -19.6626 -19.6360 -19.6341
-14.7381 -10.6822 -10.6288 -10.6272 -10.6235 -10.6094 -10.5995 -10.5878
 -8.4813  -8.4640  -8.3406  -6.4028  -6.4025  -6.4021  -6.3864  -6.3861
 -6.3852  -6.2607  -6.2585  -6.2565  -1.2516  -1.2269  -1.1998  -1.1426
 -1.1115  -1.0369  -0.9842  -0.9558  -0.8865  -0.8774  -0.8315  -0.7617
 -0.7378  -0.6967  -0.6572  -0.6341  -0.6122  -0.5937  -0.5793  -0.5731
 -0.5684  -0.5554  -0.5489  -0.5345  -0.5294  -0.5102  -0.4919  -0.4900
 -0.4827  -0.4544  -0.4485  -0.4375  -0.4268  -0.4246  -0.4086  -0.4030
 -0.3949  -0.3806  -0.3758  -0.3604  -0.3493  -0.3440  -0.3403  -0.3065

          Ground-State Mulliken Net Atomic Charges

     Atom                 Charge (a.u.)
  ----------------------------------------
      1 C                    -2.955736
      2 S                     0.422139
      3 O                    -0.834850
      4 O                    -0.756913
      5 N                    -0.902831
      6 H                     0.406573
      7 S                     0.302377
      8 C                     0.520957
      9 C                     0.018706
     10 C                     0.127385
     11 C                     0.662210
     12 S                     1.451005
     13 O                    -0.587408
     14 O                    -0.648216
     15 H                     0.310539
     16 C                     0.684756
     17 C                     0.035759
     18 O                    -0.598839
     19 H                     0.324826
     20 H                     0.321082
     21 H                     0.347340
     22 H                     0.349141
  ----------------------------------------
  Sum of atomic charges =    -1.000000

                    Cartesian Multipole Moments
 -----------------------------------------------------------------
    Charge (ESU x 10^10)
                -4.8032
    Dipole Moment (Debye)
         X       9.5522      Y       0.3473      Z      -6.8857
       Tot      11.7804
    Quadrupole Moments (Debye-Ang)
        XX    -159.2829     XY      13.7043     YY    -123.2809
        XZ      16.5340     YZ     -22.5316     ZZ    -125.1611

 Total job time:  25.46s(wall), 350.73s(cpu)
        *  Thank you very much for using Q-Chem.  Have a nice day.  *
