 Q-Chem 5.4 (devel), Q-Chem, Inc., Pleasanton, CA (2021)
 Q-Chem 5.4.1 for Intel X86 EM64T Linux

User input:
--------------------------------------------------------------
$molecule
-1  1
C -1.4099538367  1.0793964726 -0.3562906349
S -1.4605658772  0.5366845287  1.3613105987
O -2.5409297274  1.3902004585  1.931690198
O -1.8213610351 -0.9015381135  1.271371751
N -0.0489734766  0.6906180437  1.9845759247
H  0.1252422222  1.6840849283  2.1567468869
S -2.8579238888  1.5677693032 -1.1642148596
C -1.9568454717  1.7427688613 -2.6436461605
C -0.6091598459  1.4734529008 -2.4984051559
C -0.3077855617  1.0767150164 -1.1517700994
S -2.6728748272  2.3589388534 -4.1066609077
N  0.3317835647  1.6297741762 -3.4848418838
H  0.6870627547  0.8083860685 -0.8123047144
C -1.1891014135  2.7781116935 -5.0569147531
C -0.1548400981  1.6703266567 -4.8560842552
O -3.4199194882  1.3018411198 -4.8182753688
O -3.4486391222  3.5730964182 -3.7791892856
C -1.5369115351  2.9468683144 -6.5360616895
C -2.5735694895  4.0213106071 -6.8408521412
O -2.2264961576  5.285106501 -6.2834558543
H  1.1765132855  1.083306802 -3.3490383685
H -0.8395701628  3.7187321404 -4.6169645519
H  0.6886335461  1.8823729836 -5.5153145614
H -0.5884593197  0.7043304456 -5.1557700492
H -1.8756539369  1.9903671172 -6.950390141
H -0.597029041  3.204564256 -7.0393914892
H -3.5507798715  3.7665862964 -6.4225393062
H -2.687462697  4.1019228799 -7.9277366268
H -1.4062084918  5.58916727 -6.7048145012
$end

$rem
jobtype sp
exchange M062X
basis 6-31+G*
SMX_GAS_PHASE = TRUE
solvent_method sm12
$end

$smx
solvent water
charges mk
$end
--------------------------------------------------------------

             Standard Nuclear Orientation (Angstroms)
    I     Atom           X                Y                Z
 ----------------------------------------------------------------
    1      C      -1.4099538367     1.0793964726    -0.3562906349
    2      S      -1.4605658772     0.5366845287     1.3613105987
    3      O      -2.5409297274     1.3902004585     1.9316901980
    4      O      -1.8213610351    -0.9015381135     1.2713717510
    5      N      -0.0489734766     0.6906180437     1.9845759247
    6      H       0.1252422222     1.6840849283     2.1567468869
    7      S      -2.8579238888     1.5677693032    -1.1642148596
    8      C      -1.9568454717     1.7427688613    -2.6436461605
    9      C      -0.6091598459     1.4734529008    -2.4984051559
   10      C      -0.3077855617     1.0767150164    -1.1517700994
   11      S      -2.6728748272     2.3589388534    -4.1066609077
   12      N       0.3317835647     1.6297741762    -3.4848418838
   13      H       0.6870627547     0.8083860685    -0.8123047144
   14      C      -1.1891014135     2.7781116935    -5.0569147531
   15      C      -0.1548400981     1.6703266567    -4.8560842552
   16      O      -3.4199194882     1.3018411198    -4.8182753688
   17      O      -3.4486391222     3.5730964182    -3.7791892856
   18      C      -1.5369115351     2.9468683144    -6.5360616895
   19      C      -2.5735694895     4.0213106071    -6.8408521412
   20      O      -2.2264961576     5.2851065010    -6.2834558543
   21      H       1.1765132855     1.0833068020    -3.3490383685
   22      H      -0.8395701628     3.7187321404    -4.6169645519
   23      H       0.6886335461     1.8823729836    -5.5153145614
   24      H      -0.5884593197     0.7043304456    -5.1557700492
   25      H      -1.8756539369     1.9903671172    -6.9503901410
   26      H      -0.5970290410     3.2045642560    -7.0393914892
   27      H      -3.5507798715     3.7665862964    -6.4225393062
   28      H      -2.6874626970     4.1019228799    -7.9277366268
   29      H      -1.4062084918     5.5891672700    -6.7048145012
 ----------------------------------------------------------------

    9   -1991.1407953600      3.53e-06  Convergence criterion met
 Total energy in the final basis set =    -1991.1407953600
    5   -1991.1207887975      9.52e-06  Convergence criterion met
 Total energy in the final basis set =    -1991.2652760302

                    Orbital Energies (a.u.)
 --------------------------------------------------------------

 Alpha MOs
 -- Occupied --
-90.1533 -90.1494 -89.9795 -19.6534 -19.6534 -19.6502 -19.6323 -19.6309
-14.8024 -14.7385 -10.6347 -10.6216 -10.6100 -10.6098 -10.6083 -10.6019
-10.5858 -10.5714  -8.4714  -8.4615  -8.3268  -6.3930  -6.3928  -6.3923
 -6.3838  -6.3835  -6.3829  -6.2474  -6.2452  -6.2422  -1.2383  -1.2228
 -1.1525  -1.1283  -1.1054  -1.0881  -1.0043  -0.9839  -0.9442  -0.8837
 -0.8591  -0.8340  -0.7782  -0.7490  -0.7241  -0.7049  -0.6540  -0.6355
 -0.6307  -0.6027  -0.5928  -0.5846  -0.5687  -0.5628  -0.5512  -0.5441
 -0.5373  -0.5293  -0.5202  -0.5045  -0.4972  -0.4810  -0.4701  -0.4554
 -0.4419  -0.4391  -0.4326  -0.4197  -0.4172  -0.4091  -0.4059  -0.4025
 -0.3911  -0.3779  -0.3712  -0.3668  -0.3581  -0.3452  -0.3281  -0.3147
 -0.2793

          Ground-State Mulliken Net Atomic Charges

     Atom                 Charge (a.u.)
  ----------------------------------------
      1 C                    -3.477198
      2 S                     0.639374
      3 O                    -0.789468
      4 O                    -0.801750
      5 N                    -1.022126
      6 H                     0.421281
      7 S                    -0.238602
      8 C                    -0.128645
      9 C                     1.212713
     10 C                     0.488779
     11 S                     1.063188
     12 N                    -0.369162
     13 H                     0.304834
     14 C                    -1.170809
     15 C                     1.433513
     16 O                    -0.539414
     17 O                    -0.689253
     18 C                     0.790877
     19 C                    -0.357377
     20 O                    -0.778678
     21 H                     0.510190
     22 H                     0.324560
     23 H                     0.313757
     24 H                     0.286254
     25 H                     0.275593
     26 H                     0.299204
     27 H                     0.208772
     28 H                     0.241715
     29 H                     0.547879
  ----------------------------------------
  Sum of atomic charges =    -1.000000

                    Cartesian Multipole Moments
 -----------------------------------------------------------------
    Charge (ESU x 10^10)
                -4.8032
    Dipole Moment (Debye)
         X      17.8301      Y      -2.5023      Z     -10.3897
       Tot      20.7875
    Quadrupole Moments (Debye-Ang)
        XX    -183.9218     XY      31.0364     YY    -154.4846
        XZ     -27.0614     YZ      -2.8093     ZZ    -119.4480

 Total job time:  34.56s(wall), 473.61s(cpu)
        *  Thank you very much for using Q-Chem.  Have a nice day.  *
