 Q-Chem 5.4 (devel), Q-Chem, Inc., Pleasanton, CA (2021)
 Q-Chem 5.4.1 for Intel X86 EM64T Linux

User input:
--------------------------------------------------------------
$molecule
-1  1
C  1.094890673  0.4411369197  0.1531671459
C -1.2457627347  0.8545627575  0.157407858
N -2.5921890143  0.9010482015 -0.0242520097
S -0.2714050182 -0.4751164328 -0.4153186315
S  2.7842990363 -0.2074504791  0.1131818082
O  2.8685833306 -0.9252489058  1.4151966605
O  2.747723817 -1.0978009849 -1.07154032
N  3.7878142728  0.9510745603 -0.0959307067
H  3.9238710379  1.4343625177  0.7952392281
N  0.7921981675  1.5773989779  0.6751730109
N -0.5526159434  1.8326775381  0.6886935354
H -3.0906472645  0.0177417666 -0.0531067867
H -3.0615983601  1.6112415632  0.5310332076
$end

$rem
jobtype sp
exchange M062X
basis 6-31+G*
SMX_GAS_PHASE = TRUE
solvent_method sm12
$end

$smx
solvent water
charges mk
$end
--------------------------------------------------------------

             Standard Nuclear Orientation (Angstroms)
    I     Atom           X                Y                Z
 ----------------------------------------------------------------
    1      C       1.0948906730     0.4411369197     0.1531671459
    2      C      -1.2457627347     0.8545627575     0.1574078580
    3      N      -2.5921890143     0.9010482015    -0.0242520097
    4      S      -0.2714050182    -0.4751164328    -0.4153186315
    5      S       2.7842990363    -0.2074504791     0.1131818082
    6      O       2.8685833306    -0.9252489058     1.4151966605
    7      O       2.7477238170    -1.0978009849    -1.0715403200
    8      N       3.7878142728     0.9510745603    -0.0959307067
    9      H       3.9238710379     1.4343625177     0.7952392281
   10      N       0.7921981675     1.5773989779     0.6751730109
   11      N      -0.5526159434     1.8326775381     0.6886935354
   12      H      -3.0906472645     0.0177417666    -0.0531067867
   13      H      -3.0615983601     1.6112415632     0.5310332076
 ----------------------------------------------------------------

    9   -1243.5583508168      7.81e-06  Convergence criterion met
 Total energy in the final basis set =    -1243.5583508168
    6   -1243.5454935020      5.74e-06  Convergence criterion met
 Total energy in the final basis set =    -1243.6717215475

                    Orbital Energies (a.u.)
 --------------------------------------------------------------

 Alpha MOs
 -- Occupied --
-90.1530 -89.9871 -19.6370 -19.6367 -14.8219 -14.8045 -14.8038 -14.7404
-10.6787 -10.6422  -8.4653  -8.3354  -6.3877  -6.3873  -6.3866  -6.2556
 -6.2537  -6.2508  -1.2289  -1.1708  -1.1109  -1.0631  -0.9880  -0.9367
 -0.9078  -0.7609  -0.7036  -0.6718  -0.6223  -0.6012  -0.5739  -0.5534
 -0.5396  -0.5303  -0.5123  -0.4456  -0.4371  -0.4174  -0.4083  -0.3925
 -0.3704  -0.3643  -0.3586  -0.3462  -0.3269  -0.3022

          Ground-State Mulliken Net Atomic Charges

     Atom                 Charge (a.u.)
  ----------------------------------------
      1 C                    -1.110920
      2 C                     0.595995
      3 N                    -0.404770
      4 S                     1.307453
      5 S                     0.483828
      6 O                    -0.738369
      7 O                    -0.781775
      8 N                    -1.015994
      9 H                     0.407849
     10 N                    -0.483601
     11 N                    -0.200362
     12 H                     0.472746
     13 H                     0.467919
  ----------------------------------------
  Sum of atomic charges =    -1.000000

                    Cartesian Multipole Moments
 -----------------------------------------------------------------
    Charge (ESU x 10^10)
                -4.8032
    Dipole Moment (Debye)
         X     -19.0656      Y      -0.5280      Z      -0.0311
       Tot      19.0730
    Quadrupole Moments (Debye-Ang)
        XX    -113.3387     XY       5.5610     YY     -89.4118
        XZ       1.2789     YZ       0.7680     ZZ     -85.7106

 Total job time:  9.94s(wall), 122.87s(cpu)
        *  Thank you very much for using Q-Chem.  Have a nice day.  *
