 Q-Chem 5.4 (devel), Q-Chem, Inc., Pleasanton, CA (2021)
 Q-Chem 5.4.1 for Intel X86 EM64T Linux

User input:
--------------------------------------------------------------
$molecule
-1  1
C  1.0953769048  0.5412469492 -0.0626277212
C -1.3160278526  0.5869961372  0.2059824638
S -0.1105072035 -0.669192915  0.3008211107
S  2.8513747544  0.0887471394 -0.1097524149
O  2.8010672913 -1.3845961705  0.0509360937
O  3.2700562364  0.5550503138 -1.4584342937
N  3.582943218  0.7359501955  1.0960053759
H  3.7370336378  1.72607738  0.8885946939
N  0.6879553789  1.748707174 -0.2386706384
C -0.693690467  1.8150607203 -0.0950073679
C -2.7006972741  0.493689253  0.3780131078
C -3.4497827949  1.6548162337  0.2424544527
C -2.8377557121  2.8857770383 -0.0594965629
C -1.4652777862  2.9770064597 -0.2300480128
H -3.1758360549 -0.4542910263  0.6101281984
H -4.5268944012  1.6103481093  0.3715147813
H -3.4514774505  3.7756315496 -0.1602815275
H -0.9827974246  3.921304459 -0.4637647388
$end

$rem
jobtype sp
exchange M062X
basis 6-31+G*
SMX_GAS_PHASE = TRUE
solvent_method sm12
$end

$smx
solvent water
charges mk
$end
--------------------------------------------------------------

             Standard Nuclear Orientation (Angstroms)
    I     Atom           X                Y                Z
 ----------------------------------------------------------------
    1      C       1.0953769048     0.5412469492    -0.0626277212
    2      C      -1.3160278526     0.5869961372     0.2059824638
    3      S      -0.1105072035    -0.6691929150     0.3008211107
    4      S       2.8513747544     0.0887471394    -0.1097524149
    5      O       2.8010672913    -1.3845961705     0.0509360937
    6      O       3.2700562364     0.5550503138    -1.4584342937
    7      N       3.5829432180     0.7359501955     1.0960053759
    8      H       3.7370336378     1.7260773800     0.8885946939
    9      N       0.6879553789     1.7487071740    -0.2386706384
   10      C      -0.6936904670     1.8150607203    -0.0950073679
   11      C      -2.7006972741     0.4936892530     0.3780131078
   12      C      -3.4497827949     1.6548162337     0.2424544527
   13      C      -2.8377557121     2.8857770383    -0.0594965629
   14      C      -1.4652777862     2.9770064597    -0.2300480128
   15      H      -3.1758360549    -0.4542910263     0.6101281984
   16      H      -4.5268944012     1.6103481093     0.3715147813
   17      H      -3.4514774505     3.7756315496    -0.1602815275
   18      H      -0.9827974246     3.9213044590    -0.4637647388
 ----------------------------------------------------------------

    9   -1325.7986486715      3.85e-06  Convergence criterion met
 Total energy in the final basis set =    -1325.7986486715
    5   -1325.7863888258      6.79e-06  Convergence criterion met
 Total energy in the final basis set =    -1325.9064856182

                    Orbital Energies (a.u.)
 --------------------------------------------------------------

 Alpha MOs
 -- Occupied --
-90.1508 -89.9788 -19.6369 -19.6363 -14.7965 -14.7409 -10.6509 -10.6103
-10.6094 -10.5825 -10.5763 -10.5758 -10.5736  -8.4634  -8.3263  -6.3858
 -6.3854  -6.3846  -6.2465  -6.2445  -6.2419  -1.2280  -1.1117  -1.1041
 -0.9868  -0.9761  -0.9202  -0.8638  -0.8465  -0.7607  -0.7028  -0.6987
 -0.6567  -0.6032  -0.5832  -0.5762  -0.5705  -0.5366  -0.5246  -0.5215
 -0.5178  -0.4782  -0.4460  -0.4426  -0.4330  -0.4199  -0.4093  -0.3944
 -0.3858  -0.3817  -0.3670  -0.3436  -0.3298  -0.3044  -0.3024

          Ground-State Mulliken Net Atomic Charges

     Atom                 Charge (a.u.)
  ----------------------------------------
      1 C                    -2.526896
      2 C                    -0.885679
      3 S                     0.882590
      4 S                     0.287898
      5 O                    -0.814707
      6 O                    -0.751151
      7 N                    -0.970174
      8 H                     0.409059
      9 N                    -0.243272
     10 C                    -1.683915
     11 C                     1.754393
     12 C                     0.996863
     13 C                     0.764390
     14 C                     0.653482
     15 H                     0.294877
     16 H                     0.279022
     17 H                     0.280996
     18 H                     0.272224
  ----------------------------------------
  Sum of atomic charges =    -1.000000

                    Cartesian Multipole Moments
 -----------------------------------------------------------------
    Charge (ESU x 10^10)
                -4.8032
    Dipole Moment (Debye)
         X     -18.0526      Y       1.1926      Z       0.8621
       Tot      18.1125
    Quadrupole Moments (Debye-Ang)
        XX    -137.7128     XY       1.1305     YY     -92.7969
        XZ       0.1015     YZ       0.8463     ZZ    -105.8331

 Total job time:  17.02s(wall), 229.82s(cpu)
        *  Thank you very much for using Q-Chem.  Have a nice day.  *
