 Q-Chem 5.4 (devel), Q-Chem, Inc., Pleasanton, CA (2021)
 Q-Chem 5.4.1 for Intel X86 EM64T Linux

User input:
--------------------------------------------------------------
$molecule
-1  1
C  1.0723451019  0.4049903533 -0.0750117128
C -1.2432715694  0.7639793429  0.1301382367
N -2.6096945666  0.7784958071  0.2926253986
S -0.2521771343 -0.651343983  0.289497174
S  2.7765598538 -0.1967264247 -0.2070567966
O  3.4803850446  0.5966510937  0.8340959961
O  2.6047769525 -1.63430015  0.1119992575
N  3.2820027836 -0.0205138731 -1.6607308525
H  3.5401907379  0.9598261737 -1.7996392242
C -3.371501708 -0.3195570667  0.6015825768
O -2.8485892429 -1.4220059252  0.7491265181
C -4.8418701244 -0.0792225458  0.756998925
N  0.7490038552  1.6375166638 -0.2814341605
N -0.5937079577  1.8596257626 -0.1622065828
H -3.0620778383  1.682506456  0.1736538207
H -5.1026837766 -0.2301598093  1.8090496794
H -5.3802205107 -0.8217604466  0.1632373449
H -5.1379309005  0.9253605713  0.4526334017
$end

$rem
jobtype sp
exchange M062X
basis 6-31+G*
xc_grid 1
SMX_GAS_PHASE = TRUE
solvent_method sm12
$end

$smx
solvent water
charges mk
$end
--------------------------------------------------------------

             Standard Nuclear Orientation (Angstroms)
    I     Atom           X                Y                Z
 ----------------------------------------------------------------
    1      C       1.0723451019     0.4049903533    -0.0750117128
    2      C      -1.2432715694     0.7639793429     0.1301382367
    3      N      -2.6096945666     0.7784958071     0.2926253986
    4      S      -0.2521771343    -0.6513439830     0.2894971740
    5      S       2.7765598538    -0.1967264247    -0.2070567966
    6      O       3.4803850446     0.5966510937     0.8340959961
    7      O       2.6047769525    -1.6343001500     0.1119992575
    8      N       3.2820027836    -0.0205138731    -1.6607308525
    9      H       3.5401907379     0.9598261737    -1.7996392242
   10      C      -3.3715017080    -0.3195570667     0.6015825768
   11      O      -2.8485892429    -1.4220059252     0.7491265181
   12      C      -4.8418701244    -0.0792225458     0.7569989250
   13      N       0.7490038552     1.6375166638    -0.2814341605
   14      N      -0.5937079577     1.8596257626    -0.1622065828
   15      H      -3.0620778383     1.6825064560     0.1736538207
   16      H      -5.1026837766    -0.2301598093     1.8090496794
   17      H      -5.3802205107    -0.8217604466     0.1632373449
   18      H      -5.1379309005     0.9253605713     0.4526334017
 ----------------------------------------------------------------

    9   -1396.1787347223      7.11e-06  Convergence criterion met
 Total energy in the final basis set =    -1396.1787347223
    5   -1396.1637480112      8.82e-06  Convergence criterion met
 Total energy in the final basis set =    -1396.2945053201

                    Orbital Energies (a.u.)
 --------------------------------------------------------------

 Alpha MOs
 -- Occupied --
-90.1580 -89.9957 -19.6486 -19.6382 -19.6374 -14.8412 -14.8233 -14.8175
-14.7422 -10.6916 -10.6848 -10.6429 -10.5628  -8.4654  -8.3383  -6.3876
 -6.3872  -6.3864  -6.2575  -6.2559  -6.2538  -1.2305  -1.2021  -1.1750
 -1.1132  -1.0850  -0.9888  -0.9483  -0.9281  -0.8567  -0.7715  -0.7319
 -0.6929  -0.6686  -0.6290  -0.5838  -0.5780  -0.5680  -0.5597  -0.5377
 -0.5317  -0.5193  -0.5084  -0.4778  -0.4647  -0.4411  -0.4239  -0.4206
 -0.4084  -0.3916  -0.3789  -0.3721  -0.3679  -0.3592  -0.3462  -0.3352
 -0.3090

          Ground-State Mulliken Net Atomic Charges

     Atom                 Charge (a.u.)
  ----------------------------------------
      1 C                    -1.624913
      2 C                     0.576575
      3 N                    -0.095866
      4 S                     1.304509
      5 S                     0.279295
      6 O                    -0.736721
      7 O                    -0.810351
      8 N                    -0.983440
      9 H                     0.408012
     10 C                     0.715070
     11 O                    -0.740308
     12 C                     0.026136
     13 N                    -0.468932
     14 N                    -0.221670
     15 H                     0.535446
     16 H                     0.286597
     17 H                     0.277520
     18 H                     0.273042
  ----------------------------------------
  Sum of atomic charges =    -1.000000

                    Cartesian Multipole Moments
 -----------------------------------------------------------------
    Charge (ESU x 10^10)
                -4.8032
    Dipole Moment (Debye)
         X     -19.8940      Y       3.2728      Z       1.3243
       Tot      20.2049
    Quadrupole Moments (Debye-Ang)
        XX    -116.4656     XY      -2.9977     YY    -110.1906
        XZ      -0.3083     YZ      -0.3343     ZZ    -100.8185

 Total job time:  11.17s(wall), 138.03s(cpu)
        *  Thank you very much for using Q-Chem.  Have a nice day.  *
