 Q-Chem 5.4 (devel), Q-Chem, Inc., Pleasanton, CA (2021)
 Q-Chem 5.4.1 for Intel X86 EM64T Linux

User input:
--------------------------------------------------------------
$molecule
-1  1
C -0.7831450248  0.3880807879 -0.6941519914
N -1.6005124986  1.1241528076 -1.3571335521
N -1.0333610971  1.5340085901 -2.5199551544
C  0.2288679503  1.1247669623 -2.773209966
N  0.8582459936  1.4790194869 -3.866915278
S  0.7758858499  0.1280275261 -1.4290317442
S -1.2735604347 -0.4073358604  0.8619995996
O -1.6395505719 -1.7695782866  0.3895592606
O -0.013978425 -0.3484259045  1.640192084
N -2.3896885743  0.4120397119  1.5466468785
H -3.282973134  0.19996848  1.0961141283
C -1.7862613329  2.398139382 -3.4229553387
H -2.764592462  2.5580248277 -2.9740347755
H -1.8923946953  1.9106244708 -4.3931594298
H -1.2655888945  3.3498242903 -3.5408792882
C  2.1377444089  1.0087259763 -4.0367689712
C  2.8013163152  1.4390928769 -5.3127825032
O  2.7179763038  0.2847591536 -3.2148606912
H  2.8364621623  2.5319454034 -5.360035181
H  2.2134614654  1.0914279601 -6.1681505474
H  3.8119586954  1.0338553577 -5.3705545386
$end

$rem
jobtype sp
exchange M062X
basis 6-31+G*
xc_grid 1
SMX_GAS_PHASE = TRUE
solvent_method sm12
$end

$smx
solvent water
charges mk
$end
--------------------------------------------------------------

             Standard Nuclear Orientation (Angstroms)
    I     Atom           X                Y                Z
 ----------------------------------------------------------------
    1      C      -0.7831450248     0.3880807879    -0.6941519914
    2      N      -1.6005124986     1.1241528076    -1.3571335521
    3      N      -1.0333610971     1.5340085901    -2.5199551544
    4      C       0.2288679503     1.1247669623    -2.7732099660
    5      N       0.8582459936     1.4790194869    -3.8669152780
    6      S       0.7758858499     0.1280275261    -1.4290317442
    7      S      -1.2735604347    -0.4073358604     0.8619995996
    8      O      -1.6395505719    -1.7695782866     0.3895592606
    9      O      -0.0139784250    -0.3484259045     1.6401920840
   10      N      -2.3896885743     0.4120397119     1.5466468785
   11      H      -3.2829731340     0.1999684800     1.0961141283
   12      C      -1.7862613329     2.3981393820    -3.4229553387
   13      H      -2.7645924620     2.5580248277    -2.9740347755
   14      H      -1.8923946953     1.9106244708    -4.3931594298
   15      H      -1.2655888945     3.3498242903    -3.5408792882
   16      C       2.1377444089     1.0087259763    -4.0367689712
   17      C       2.8013163152     1.4390928769    -5.3127825032
   18      O       2.7179763038     0.2847591536    -3.2148606912
   19      H       2.8364621623     2.5319454034    -5.3600351810
   20      H       2.2134614654     1.0914279601    -6.1681505474
   21      H       3.8119586954     1.0338553577    -5.3705545386
 ----------------------------------------------------------------

    9   -1435.4758140128      6.89e-06  Convergence criterion met
 Total energy in the final basis set =    -1435.4758140128
    5   -1435.4648315875      8.22e-06  Convergence criterion met
 Total energy in the final basis set =    -1435.5814343675

                    Orbital Energies (a.u.)
 --------------------------------------------------------------

 Alpha MOs
 -- Occupied --
-90.1570 -89.9906 -19.6420 -19.6373 -19.6358 -14.8804 -14.8439 -14.7687
-14.7418 -10.6918 -10.6699 -10.6476 -10.5961 -10.5534  -8.4644  -8.3333
 -6.3865  -6.3862  -6.3855  -6.2533  -6.2511  -6.2478  -1.2308  -1.2126
 -1.1778  -1.1115  -1.0540  -0.9964  -0.9822  -0.9228  -0.8468  -0.8298
 -0.7767  -0.7178  -0.6751  -0.6438  -0.5956  -0.5884  -0.5812  -0.5720
 -0.5656  -0.5374  -0.5301  -0.5286  -0.4960  -0.4904  -0.4730  -0.4656
 -0.4546  -0.4400  -0.4195  -0.4148  -0.4056  -0.3943  -0.3886  -0.3713
 -0.3657  -0.3451  -0.3411  -0.3256  -0.3018

          Ground-State Mulliken Net Atomic Charges

     Atom                 Charge (a.u.)
  ----------------------------------------
      1 C                    -1.346827
      2 N                    -0.654522
      3 N                     0.489110
      4 C                     0.024691
      5 N                    -0.170146
      6 S                     0.934045
      7 S                     0.538773
      8 O                    -0.728568
      9 O                    -0.801979
     10 N                    -0.974970
     11 H                     0.416297
     12 C                    -0.066232
     13 H                     0.293703
     14 H                     0.297666
     15 H                     0.298969
     16 C                     0.536473
     17 C                    -0.180199
     18 O                    -0.707630
     19 H                     0.273074
     20 H                     0.273090
     21 H                     0.255183
  ----------------------------------------
  Sum of atomic charges =    -1.000000

                    Cartesian Multipole Moments
 -----------------------------------------------------------------
    Charge (ESU x 10^10)
                -4.8032
    Dipole Moment (Debye)
         X       1.2304      Y       4.7178      Z      -7.0410
       Tot       8.5643
    Quadrupole Moments (Debye-Ang)
        XX    -112.6507     XY      -4.8247     YY    -103.0024
        XZ      17.6142     YZ      -7.9886     ZZ    -105.7351

 Total job time:  12.43s(wall), 163.23s(cpu)
        *  Thank you very much for using Q-Chem.  Have a nice day.  *
