 Q-Chem 5.4 (devel), Q-Chem, Inc., Pleasanton, CA (2021)
 Q-Chem 5.4.1 for Intel X86 EM64T Linux

User input:
--------------------------------------------------------------
$molecule
-1  1
C -1.1041461486  0.6328958779 -1.4502448799
S -1.35801106  0.5826191065  0.3432709035
O -2.051966789 -0.7181328645  0.5427203357
O  0.0320912609  0.6315306997  0.8584517298
N -2.1406735436  1.8468550107  0.789561366
H -3.1281471966  1.7150148202  0.5561765121
N -2.0739475095  0.5661565527 -2.2922446841
C -1.5935385899  0.6909555775 -3.5898044941
C -0.202422899  0.8609028844 -3.6953429427
S  0.5033995419  0.8570482015 -2.1022276477
C -2.3733673831  0.6601006416 -4.7571032131
C -1.7517829341  0.8000674473 -5.9799115681
C -0.350894615  0.970753468 -6.0687837165
C  0.4456139154  1.0025028885 -4.9289011574
O  0.1354021307  1.0987511468 -7.3352043156
C  1.5465704496  1.2784341475 -7.4992210538
C  1.8191391973  1.3972765559 -8.9809782997
H -3.4489901161  0.5290526589 -4.6887195479
H -2.3257159777  0.7823201491 -6.9013348255
H  1.5203145623  1.1318899811 -4.9791543748
H  2.0698265637  0.4174364984 -7.0667165962
H  1.8567000735  2.1840073845 -6.9644938097
H  1.5034261825  0.4915600209 -9.5071880556
H  2.891724941  1.5366589074 -9.1441462479
H  1.2898219436  2.2559882376 -9.4045114167
$end

$rem
jobtype sp
exchange M062X
basis 6-31+G*
xc_grid 1
SMX_GAS_PHASE = TRUE
solvent_method sm12
$end

$smx
solvent water
charges mk
$end
--------------------------------------------------------------

             Standard Nuclear Orientation (Angstroms)
    I     Atom           X                Y                Z
 ----------------------------------------------------------------
    1      C      -1.1041461486     0.6328958779    -1.4502448799
    2      S      -1.3580110600     0.5826191065     0.3432709035
    3      O      -2.0519667890    -0.7181328645     0.5427203357
    4      O       0.0320912609     0.6315306997     0.8584517298
    5      N      -2.1406735436     1.8468550107     0.7895613660
    6      H      -3.1281471966     1.7150148202     0.5561765121
    7      N      -2.0739475095     0.5661565527    -2.2922446841
    8      C      -1.5935385899     0.6909555775    -3.5898044941
    9      C      -0.2024228990     0.8609028844    -3.6953429427
   10      S       0.5033995419     0.8570482015    -2.1022276477
   11      C      -2.3733673831     0.6601006416    -4.7571032131
   12      C      -1.7517829341     0.8000674473    -5.9799115681
   13      C      -0.3508946150     0.9707534680    -6.0687837165
   14      C       0.4456139154     1.0025028885    -4.9289011574
   15      O       0.1354021307     1.0987511468    -7.3352043156
   16      C       1.5465704496     1.2784341475    -7.4992210538
   17      C       1.8191391973     1.3972765559    -8.9809782997
   18      H      -3.4489901161     0.5290526589    -4.6887195479
   19      H      -2.3257159777     0.7823201491    -6.9013348255
   20      H       1.5203145623     1.1318899811    -4.9791543748
   21      H       2.0698265637     0.4174364984    -7.0667165962
   22      H       1.8567000735     2.1840073845    -6.9644938097
   23      H       1.5034261825     0.4915600209    -9.5071880556
   24      H       2.8917249410     1.5366589074    -9.1441462479
   25      H       1.2898219436     2.2559882376    -9.4045114167
 ----------------------------------------------------------------

    9   -1479.5894571850      3.84e-06  Convergence criterion met
 Total energy in the final basis set =    -1479.5894571850
    5   -1479.5743364111      6.16e-06  Convergence criterion met
 Total energy in the final basis set =    -1479.6984678304

                    Orbital Energies (a.u.)
 --------------------------------------------------------------

 Alpha MOs
 -- Occupied --
-90.1536 -89.9791 -19.6874 -19.6360 -19.6357 -14.7960 -14.7402 -10.6476
-10.6364 -10.6114 -10.6086 -10.6042 -10.5789 -10.5787 -10.5705 -10.5441
 -8.4615  -8.3220  -6.3838  -6.3831  -6.3825  -6.2418  -6.2396  -6.2378
 -1.2270  -1.2033  -1.1108  -1.1019  -0.9855  -0.9742  -0.9203  -0.8854
 -0.8497  -0.8396  -0.7639  -0.7275  -0.7009  -0.6841  -0.6571  -0.6131
 -0.6060  -0.5844  -0.5736  -0.5700  -0.5450  -0.5349  -0.5256  -0.5205
 -0.4937  -0.4856  -0.4775  -0.4675  -0.4513  -0.4392  -0.4289  -0.4263
 -0.4099  -0.4077  -0.3923  -0.3906  -0.3837  -0.3808  -0.3629  -0.3428
 -0.3232  -0.3056  -0.2816

          Ground-State Mulliken Net Atomic Charges

     Atom                 Charge (a.u.)
  ----------------------------------------
      1 C                    -2.738570
      2 S                     0.609934
      3 O                    -0.714973
      4 O                    -0.806505
      5 N                    -0.948179
      6 H                     0.410578
      7 N                    -0.241263
      8 C                    -2.289924
      9 C                     0.512240
     10 S                     0.858663
     11 C                     1.034450
     12 C                    -0.399996
     13 C                     1.795993
     14 C                     0.668409
     15 O                    -0.455721
     16 C                     0.421673
     17 C                    -0.733119
     18 H                     0.274545
     19 H                     0.274230
     20 H                     0.295560
     21 H                     0.237706
     22 H                     0.236591
     23 H                     0.227542
     24 H                     0.242926
     25 H                     0.227183
  ----------------------------------------
  Sum of atomic charges =    -1.000027

                    Cartesian Multipole Moments
 -----------------------------------------------------------------
    Charge (ESU x 10^10)
                -4.8033
    Dipole Moment (Debye)
         X       8.4591      Y      -2.2066      Z      -6.8203
       Tot      11.0879
    Quadrupole Moments (Debye-Ang)
        XX    -116.4409     XY       4.7096     YY    -124.1397
        XZ      -9.9521     YZ      -8.6389     ZZ     -95.4054

 Total job time:  20.72s(wall), 246.08s(cpu)
        *  Thank you very much for using Q-Chem.  Have a nice day.  *
