 Q-Chem 5.4 (devel), Q-Chem, Inc., Pleasanton, CA (2021)
 Q-Chem 5.4.1 for Intel X86 EM64T Linux

User input:
--------------------------------------------------------------
$molecule
-1  1
C -1.440821414  0.6367367546 -0.8837938769
C -2.5572907214  0.755870459 -1.7299843213
Cl -4.158306516  0.9726182328 -1.0723356272
C -2.4505285869  0.7150271912 -3.105637347
H -3.332111837  0.8181991775 -3.7310945888
C -1.1935232761  0.5373800837 -3.7150533852
C -0.0841554929  0.4134038949 -2.8652872394
S  1.5188087106  0.1471344712 -3.5343659442
C -0.2014464663  0.4678357574 -1.4777830613
H  0.6814143634  0.3791040096 -0.8513665144
S -1.5427790998  0.7056546411  0.9258088822
O -2.3787492993 -0.4818159101  1.2686008815
O -0.1242270042  0.5843217792  1.3448455932
N -2.1049876135  2.0802370683  1.3984210884
H -3.1200708608  2.0719650753  1.2809264617
N -1.0737331168  0.5483963904 -5.0761296421
C  0.1238417996  0.0671737005 -5.7317157449
N  1.3003043299  0.7146104929 -5.1048189413
O  2.4919503414  1.0181275769 -2.8722711326
O  1.8368920294 -1.2885626512 -3.5300860612
C  0.0356380239  0.334423024 -7.2224958969
Cl -0.0235598628  2.0824577257 -7.6330292794
H -1.9358203025  0.4327175178 -5.6010626459
H  0.2154859893 -1.029881976 -5.6445987673
H -0.8840715314 -0.1178804831 -7.5967983413
H  0.8818936694 -0.1030618124 -7.7490533618
C  2.5532437266  0.5338014841 -5.8724529331
H  2.5157437743  1.1850529903 -6.7456532907
H  2.6969731362 -0.5067146585 -6.1835165885
H  3.3948171078  0.851547993 -5.2555233744
$end

$rem
jobtype sp
exchange M062X
basis 6-31+G*
SMX_GAS_PHASE = TRUE
solvent_method sm12
$end

$smx
solvent water
charges mk
$end
--------------------------------------------------------------

             Standard Nuclear Orientation (Angstroms)
    I     Atom           X                Y                Z
 ----------------------------------------------------------------
    1      C      -1.4408214140     0.6367367546    -0.8837938769
    2      C      -2.5572907214     0.7558704590    -1.7299843213
    3      Cl     -4.1583065160     0.9726182328    -1.0723356272
    4      C      -2.4505285869     0.7150271912    -3.1056373470
    5      H      -3.3321118370     0.8181991775    -3.7310945888
    6      C      -1.1935232761     0.5373800837    -3.7150533852
    7      C      -0.0841554929     0.4134038949    -2.8652872394
    8      S       1.5188087106     0.1471344712    -3.5343659442
    9      C      -0.2014464663     0.4678357574    -1.4777830613
   10      H       0.6814143634     0.3791040096    -0.8513665144
   11      S      -1.5427790998     0.7056546411     0.9258088822
   12      O      -2.3787492993    -0.4818159101     1.2686008815
   13      O      -0.1242270042     0.5843217792     1.3448455932
   14      N      -2.1049876135     2.0802370683     1.3984210884
   15      H      -3.1200708608     2.0719650753     1.2809264617
   16      N      -1.0737331168     0.5483963904    -5.0761296421
   17      C       0.1238417996     0.0671737005    -5.7317157449
   18      N       1.3003043299     0.7146104929    -5.1048189413
   19      O       2.4919503414     1.0181275769    -2.8722711326
   20      O       1.8368920294    -1.2885626512    -3.5300860612
   21      C       0.0356380239     0.3344230240    -7.2224958969
   22      Cl     -0.0235598628     2.0824577257    -7.6330292794
   23      H      -1.9358203025     0.4327175178    -5.6010626459
   24      H       0.2154859893    -1.0298819760    -5.6445987673
   25      H      -0.8840715314    -0.1178804831    -7.5967983413
   26      H       0.8818936694    -0.1030618124    -7.7490533618
   27      C       2.5532437266     0.5338014841    -5.8724529331
   28      H       2.5157437743     1.1850529903    -6.7456532907
   29      H       2.6969731362    -0.5067146585    -6.1835165885
   30      H       3.3948171078     0.8515479930    -5.2555233744
 ----------------------------------------------------------------

    8   -2530.3546688885      9.96e-06  Convergence criterion met
 Total energy in the final basis set =    -2530.3546688885
    5   -2530.3318096304      7.19e-06  Convergence criterion met
 Total energy in the final basis set =    -2530.4736683821

                    Orbital Energies (a.u.)
 --------------------------------------------------------------

 Alpha MOs
 -- Occupied --
********-102.6652 -90.1783 -90.1422 -19.6635 -19.6629 -19.6277 -19.6262
-14.8237 -14.8134 -14.7298 -10.6622 -10.6537 -10.6479 -10.6295 -10.6101
-10.6012 -10.5996 -10.5940 -10.5914  -9.8422  -9.8153  -8.4935  -8.4546
 -7.5665  -7.5600  -7.5597  -7.5394  -7.5329  -7.5328  -6.4157  -6.4150
 -6.4144  -6.3771  -6.3765  -6.3758  -1.2626  -1.2171  -1.1443  -1.1222
 -1.1015  -1.0562  -1.0224  -0.9802  -0.9735  -0.9614  -0.8946  -0.8900
 -0.8419  -0.8212  -0.7594  -0.7529  -0.7350  -0.7040  -0.6600  -0.6548
 -0.6327  -0.6135  -0.6073  -0.5849  -0.5731  -0.5635  -0.5586  -0.5479
 -0.5388  -0.5330  -0.5273  -0.5227  -0.5121  -0.5031  -0.4903  -0.4795
 -0.4768  -0.4687  -0.4460  -0.4354  -0.4347  -0.4238  -0.4129  -0.4060
 -0.4014  -0.3991  -0.3924  -0.3839  -0.3755  -0.3731  -0.3646  -0.3488
 -0.3381  -0.3312  -0.3177  -0.2833

          Ground-State Mulliken Net Atomic Charges

     Atom                 Charge (a.u.)
  ----------------------------------------
      1 C                    -7.460129
      2 C                     1.695297
      3 Cl                    0.189742
      4 C                    -0.106431
      5 H                     0.313254
      6 C                     3.600957
      7 C                     0.159741
      8 S                     1.338199
      9 C                    -0.378668
     10 H                     0.283272
     11 S                     0.341834
     12 O                    -0.690077
     13 O                    -0.916369
     14 N                    -0.963666
     15 H                     0.404949
     16 N                    -0.443537
     17 C                     0.445745
     18 N                    -0.660762
     19 O                    -0.699026
     20 O                    -0.533342
     21 C                     0.860463
     22 Cl                   -0.064138
     23 H                     0.521205
     24 H                     0.298398
     25 H                     0.332527
     26 H                     0.330922
     27 C                    -0.073568
     28 H                     0.303875
     29 H                     0.309949
     30 H                     0.259385
  ----------------------------------------
  Sum of atomic charges =    -0.999998

                    Cartesian Multipole Moments
 -----------------------------------------------------------------
    Charge (ESU x 10^10)
                -4.8032
    Dipole Moment (Debye)
         X       2.0543      Y      -5.0172      Z     -13.9365
       Tot      14.9539
    Quadrupole Moments (Debye-Ang)
        XX    -164.3729     XY       2.8380     YY    -172.8160
        XZ      23.5737     YZ       5.8353     ZZ    -105.4605

 Total job time:  65.60s(wall), 459.59s(cpu)
        *  Thank you very much for using Q-Chem.  Have a nice day.  *
