 Q-Chem 5.4 (devel), Q-Chem, Inc., Pleasanton, CA (2021)
 Q-Chem 5.4.1 for Intel X86 EM64T Linux

User input:
--------------------------------------------------------------
$molecule
-1  1
C -1.311291  0.206392 -1.053067
C -2.298415  0.981255 -1.683052
Cl -3.769464  1.417091 -0.848391
C -2.166891  1.421485 -2.988719
H -2.948858  2.013565 -3.454609
C -1.018951  1.080574 -3.71781
C -0.011844  0.322595 -3.096755
C  1.266147  0.080082 -3.81067
C -0.168697 -0.102058 -1.778227
H  0.621011 -0.680386 -1.310549
S -1.473228 -0.423742  0.637961
O -0.215573 -1.187019  0.840882
O -1.567841  0.811351  1.471249
N -2.686908 -1.398194  0.750484
H -3.542801 -0.841321  0.794173
N -0.820633  1.501768 -5.017922
C -0.024368  0.586843 -5.827208
N  1.269762  0.406113 -5.133221
C  0.147458  1.138107 -7.22446
H -1.66694  1.809068 -5.491991
H -0.524818 -0.393265 -5.871901
H  0.675076  0.424749 -7.862149
H  0.699283  2.082697 -7.206061
O  2.275325 -0.337019 -3.225969
C  2.466754  0.156062 -5.891122
C  2.704544 -1.124409 -6.411504
C  1.717188 -2.241911 -6.208296
C  3.880144 -1.32074 -7.142569
H  4.08318 -2.306655 -7.553604
C  4.788381 -0.281883 -7.348194
H  5.693778 -0.462415 -7.92049
C  4.535749  0.982299 -6.817909
H  5.238518  1.795517 -6.971581
C  3.3698  1.198403 -6.084539
H  3.1511  2.174566 -5.660861
H -0.843772  1.310655 -7.654429
H  2.159055 -3.199589 -6.494618
H  0.820553 -2.088006 -6.820847
H  1.393083 -2.308858 -5.163978
$end

$rem
jobtype sp
exchange M062X
basis 6-31G*
SMX_GAS_PHASE = TRUE
solvent_method sm12
$end

$smx
solvent water
charges mk
$end
--------------------------------------------------------------

             Standard Nuclear Orientation (Angstroms)
    I     Atom           X                Y                Z
 ----------------------------------------------------------------
    1      C      -1.3112910000     0.2063920000    -1.0530670000
    2      C      -2.2984150000     0.9812550000    -1.6830520000
    3      Cl     -3.7694640000     1.4170910000    -0.8483910000
    4      C      -2.1668910000     1.4214850000    -2.9887190000
    5      H      -2.9488580000     2.0135650000    -3.4546090000
    6      C      -1.0189510000     1.0805740000    -3.7178100000
    7      C      -0.0118440000     0.3225950000    -3.0967550000
    8      C       1.2661470000     0.0800820000    -3.8106700000
    9      C      -0.1686970000    -0.1020580000    -1.7782270000
   10      H       0.6210110000    -0.6803860000    -1.3105490000
   11      S      -1.4732280000    -0.4237420000     0.6379610000
   12      O      -0.2155730000    -1.1870190000     0.8408820000
   13      O      -1.5678410000     0.8113510000     1.4712490000
   14      N      -2.6869080000    -1.3981940000     0.7504840000
   15      H      -3.5428010000    -0.8413210000     0.7941730000
   16      N      -0.8206330000     1.5017680000    -5.0179220000
   17      C      -0.0243680000     0.5868430000    -5.8272080000
   18      N       1.2697620000     0.4061130000    -5.1332210000
   19      C       0.1474580000     1.1381070000    -7.2244600000
   20      H      -1.6669400000     1.8090680000    -5.4919910000
   21      H      -0.5248180000    -0.3932650000    -5.8719010000
   22      H       0.6750760000     0.4247490000    -7.8621490000
   23      H       0.6992830000     2.0826970000    -7.2060610000
   24      O       2.2753250000    -0.3370190000    -3.2259690000
   25      C       2.4667540000     0.1560620000    -5.8911220000
   26      C       2.7045440000    -1.1244090000    -6.4115040000
   27      C       1.7171880000    -2.2419110000    -6.2082960000
   28      C       3.8801440000    -1.3207400000    -7.1425690000
   29      H       4.0831800000    -2.3066550000    -7.5536040000
   30      C       4.7883810000    -0.2818830000    -7.3481940000
   31      H       5.6937780000    -0.4624150000    -7.9204900000
   32      C       4.5357490000     0.9822990000    -6.8179090000
   33      H       5.2385180000     1.7955170000    -6.9715810000
   34      C       3.3698000000     1.1984030000    -6.0845390000
   35      H       3.1511000000     2.1745660000    -5.6608610000
   36      H      -0.8437720000     1.3106550000    -7.6544290000
   37      H       2.1590550000    -3.1995890000    -6.4946180000
   38      H       0.8205530000    -2.0880060000    -6.8208470000
   39      H       1.3930830000    -2.3088580000    -5.1639780000
 ----------------------------------------------------------------

    9   -1866.5513132325      5.27e-06  Convergence criterion met
 Total energy in the final basis set =    -1866.5513132325
    5   -1866.5334734528      8.76e-06  Convergence criterion met
 Total energy in the final basis set =    -1866.6717781824

                    Orbital Energies (a.u.)
 --------------------------------------------------------------

 Alpha MOs
 -- Occupied --
******** -90.1182 -19.6115 -19.6007 -19.5984 -14.7980 -14.7848 -14.7034
-10.6624 -10.6365 -10.6328 -10.6161 -10.5917 -10.5794 -10.5734 -10.5723
-10.5680 -10.5662 -10.5568 -10.5558 -10.5544 -10.5539 -10.5449 -10.5434
 -9.8283  -8.4305  -7.5526  -7.5461  -7.5457  -6.3530  -6.3524  -6.3517
 -1.1918  -1.1624  -1.0932  -1.0749  -1.0364  -1.0034  -0.9581  -0.9493
 -0.9458  -0.8808  -0.8748  -0.8640  -0.8405  -0.8257  -0.7821  -0.7380
 -0.7301  -0.7173  -0.6932  -0.6834  -0.6673  -0.6266  -0.6227  -0.6060
 -0.5858  -0.5816  -0.5586  -0.5471  -0.5399  -0.5367  -0.5301  -0.5201
 -0.5117  -0.5046  -0.5024  -0.4933  -0.4901  -0.4859  -0.4779  -0.4700
 -0.4591  -0.4547  -0.4517  -0.4446  -0.4300  -0.4243  -0.4197  -0.4127
 -0.4082  -0.4051  -0.3860  -0.3789  -0.3723  -0.3604  -0.3429  -0.3377
 -0.3199  -0.3164  -0.3119  -0.3076  -0.2993  -0.2952  -0.2654

          Ground-State Mulliken Net Atomic Charges

     Atom                 Charge (a.u.)
  ----------------------------------------
      1 C                    -0.248548
      2 C                    -0.180748
      3 Cl                    0.007622
      4 C                    -0.122352
      5 H                     0.254266
      6 C                     0.369518
      7 C                    -0.008784
      8 C                     0.631281
      9 C                    -0.306523
     10 H                     0.198912
     11 S                     1.036303
     12 O                    -0.705525
     13 O                    -0.687485
     14 N                    -0.873792
     15 H                     0.317954
     16 N                    -0.626612
     17 C                     0.171153
     18 N                    -0.565473
     19 C                    -0.473768
     20 H                     0.403916
     21 H                     0.181418
     22 H                     0.188054
     23 H                     0.185300
     24 O                    -0.663310
     25 C                     0.145916
     26 C                     0.135753
     27 C                    -0.549198
     28 C                    -0.252833
     29 H                     0.200580
     30 C                    -0.176822
     31 H                     0.212064
     32 C                    -0.217806
     33 H                     0.211381
     34 C                    -0.175168
     35 H                     0.200252
     36 H                     0.206245
     37 H                     0.196543
     38 H                     0.194023
     39 H                     0.186292
  ----------------------------------------
  Sum of atomic charges =    -1.000000

                    Cartesian Multipole Moments
 -----------------------------------------------------------------
    Charge (ESU x 10^10)
                -4.8032
    Dipole Moment (Debye)
         X       3.4305      Y       4.6138      Z     -12.3622
       Tot      13.6338
    Quadrupole Moments (Debye-Ang)
        XX    -166.9290     XY      -7.1118     YY    -160.1555
        XZ      15.8639     YZ      -3.2053     ZZ    -105.5541

 Total job time:  43.63s(wall), 327.52s(cpu)
        *  Thank you very much for using Q-Chem.  Have a nice day.  *
