 Q-Chem 5.4 (devel), Q-Chem, Inc., Pleasanton, CA (2021)
 Q-Chem 5.4.1 for Intel X86 EM64T Linux

User input:
--------------------------------------------------------------
$molecule
-1  1
C -1.222474677  0.6145878307 -0.9287799129
C -2.4162019072  0.6183376641 -1.6731739704
Cl -3.9742187372  0.3316589495 -0.9329890976
C -2.4582142864  0.8249399149 -3.0460292906
H -3.4058353582  0.8253952143 -3.5733522417
C -1.2614180456  1.0236749609 -3.717815261
Cl -1.2809874328  1.2908982231 -5.4367002878
C -0.0516779123  1.0025800189 -3.0467401644
H  0.882014614  1.1447925032 -3.5797862878
C -0.0420492785  0.7937153431 -1.6667674469
Cl  1.5602122547  0.7679783083 -0.9760332314
S -1.3255916598  0.3540248373  0.8982842541
O  0.0502300382  0.4987986467  1.4110850689
O -2.2296374829  1.4628195827  1.307733334
N -1.8319972282 -1.090269758  1.1771876888
H -2.8378419007 -1.1301902398  1.0056258468
$end

$rem
jobtype sp
exchange M062X
basis 6-31+G*
SMX_GAS_PHASE = TRUE
solvent_method sm12
$end

$smx
solvent water
charges mk
$end
--------------------------------------------------------------

             Standard Nuclear Orientation (Angstroms)
    I     Atom           X                Y                Z
 ----------------------------------------------------------------
    1      C      -1.2224746770     0.6145878307    -0.9287799129
    2      C      -2.4162019072     0.6183376641    -1.6731739704
    3      Cl     -3.9742187372     0.3316589495    -0.9329890976
    4      C      -2.4582142864     0.8249399149    -3.0460292906
    5      H      -3.4058353582     0.8253952143    -3.5733522417
    6      C      -1.2614180456     1.0236749609    -3.7178152610
    7      Cl     -1.2809874328     1.2908982231    -5.4367002878
    8      C      -0.0516779123     1.0025800189    -3.0467401644
    9      H       0.8820146140     1.1447925032    -3.5797862878
   10      C      -0.0420492785     0.7937153431    -1.6667674469
   11      Cl      1.5602122547     0.7679783083    -0.9760332314
   12      S      -1.3255916598     0.3540248373     0.8982842541
   13      O       0.0502300382     0.4987986467     1.4110850689
   14      O      -2.2296374829     1.4628195827     1.3077333340
   15      N      -1.8319972282    -1.0902697580     1.1771876888
   16      H      -2.8378419007    -1.1301902398     1.0056258468
 ----------------------------------------------------------------

    8   -2214.0901097138      7.76e-06  Convergence criterion met
 Total energy in the final basis set =    -2214.0901097138
    5   -2214.0798849231      8.42e-06  Convergence criterion met
 Total energy in the final basis set =    -2214.1824373999

                    Orbital Energies (a.u.)
 --------------------------------------------------------------

 Alpha MOs
 -- Occupied --
********-102.6929-102.6859 -90.1454 -19.6262 -19.6258 -14.7314 -10.6558
-10.6556 -10.6482 -10.6171 -10.5978 -10.5969  -9.8424  -9.8417  -9.8348
 -8.4572  -7.5666  -7.5660  -7.5602  -7.5600  -7.5594  -7.5592  -7.5590
 -7.5526  -7.5519  -6.3796  -6.3792  -6.3784  -1.2199  -1.1028  -1.0477
 -1.0003  -0.9957  -0.9756  -0.9278  -0.8657  -0.8550  -0.7346  -0.7146
 -0.6863  -0.6187  -0.5987  -0.5765  -0.5605  -0.5483  -0.5296  -0.5227
 -0.5187  -0.4851  -0.4678  -0.4547  -0.4504  -0.4374  -0.4124  -0.4040
 -0.4011  -0.3954  -0.3867  -0.3669  -0.3616  -0.3390  -0.3343  -0.3223
 -0.3040

          Ground-State Mulliken Net Atomic Charges

     Atom                 Charge (a.u.)
  ----------------------------------------
      1 C                    -7.098566
      2 C                     0.714998
      3 Cl                    0.199167
      4 C                     2.433810
      5 H                     0.307109
      6 C                     1.111185
      7 Cl                    0.563287
      8 C                     2.427413
      9 H                     0.295636
     10 C                    -0.453113
     11 Cl                    0.102491
     12 S                     0.485434
     13 O                    -0.795087
     14 O                    -0.717711
     15 N                    -0.978556
     16 H                     0.402503
  ----------------------------------------
  Sum of atomic charges =    -1.000000

                    Cartesian Multipole Moments
 -----------------------------------------------------------------
    Charge (ESU x 10^10)
                -4.8032
    Dipole Moment (Debye)
         X       4.8176      Y      -1.3704      Z      -7.4701
       Tot       8.9938
    Quadrupole Moments (Debye-Ang)
        XX    -115.7680     XY       3.9847     YY    -117.0849
        XZ       8.7116     YZ      -2.8198     ZZ    -117.6985

 Total job time:  15.86s(wall), 211.75s(cpu)
        *  Thank you very much for using Q-Chem.  Have a nice day.  *
