 Q-Chem 5.4 (devel), Q-Chem, Inc., Pleasanton, CA (2021)
 Q-Chem 5.4.1 for Intel X86 EM64T Linux

User input:
--------------------------------------------------------------
$molecule
-1  1
C -1.516051  0.690098 -0.832428
C -2.628241  0.859732 -1.688543
C -4.03382  1.093403 -1.177339
C -2.478519  0.86368 -3.062548
H -3.337687  1.005717 -3.7106
C -1.217247  0.68409 -3.667908
C -0.123065  0.512199 -2.801341
S  1.502892  0.323362 -3.472719
C -0.271907  0.517035 -1.415752
H  0.599957  0.396443 -0.779307
S -1.579634  0.615922  0.986119
O -0.159892  0.801043  1.381441
O -2.459726  1.76117  1.351332
N -2.055172 -0.789581  1.464094
H -3.063601 -0.858144  1.316754
N -1.084471  0.738286 -5.027116
C  0.117098  0.227955 -5.659993
N  1.314044  0.807551 -5.050272
O  2.421116  1.260722 -2.827874
O  1.861189 -1.094772 -3.481655
H -1.939472  0.692869 -5.571786
F -4.955057  0.847892 -2.126847
F -4.229226  2.365315 -0.789218
F -4.35225  0.302138 -0.138578
H  0.193682 -0.861335 -5.575085
H  0.103163  0.499315 -6.713187
H  1.318318  1.830876 -5.100573

$end

$rem
jobtype sp
exchange M062X
basis 6-31+G*
SMX_GAS_PHASE = TRUE
solvent_method sm12
$end

$smx
solvent water
charges mk
$end
--------------------------------------------------------------

             Standard Nuclear Orientation (Angstroms)
    I     Atom           X                Y                Z
 ----------------------------------------------------------------
    1      C      -1.5160510000     0.6900980000    -0.8324280000
    2      C      -2.6282410000     0.8597320000    -1.6885430000
    3      C      -4.0338200000     1.0934030000    -1.1773390000
    4      C      -2.4785190000     0.8636800000    -3.0625480000
    5      H      -3.3376870000     1.0057170000    -3.7106000000
    6      C      -1.2172470000     0.6840900000    -3.6679080000
    7      C      -0.1230650000     0.5121990000    -2.8013410000
    8      S       1.5028920000     0.3233620000    -3.4727190000
    9      C      -0.2719070000     0.5170350000    -1.4157520000
   10      H       0.5999570000     0.3964430000    -0.7793070000
   11      S      -1.5796340000     0.6159220000     0.9861190000
   12      O      -0.1598920000     0.8010430000     1.3814410000
   13      O      -2.4597260000     1.7611700000     1.3513320000
   14      N      -2.0551720000    -0.7895810000     1.4640940000
   15      H      -3.0636010000    -0.8581440000     1.3167540000
   16      N      -1.0844710000     0.7382860000    -5.0271160000
   17      C       0.1170980000     0.2279550000    -5.6599930000
   18      N       1.3140440000     0.8075510000    -5.0502720000
   19      O       2.4211160000     1.2607220000    -2.8278740000
   20      O       1.8611890000    -1.0947720000    -3.4816550000
   21      H      -1.9394720000     0.6928690000    -5.5717860000
   22      F      -4.9550570000     0.8478920000    -2.1268470000
   23      F      -4.2292260000     2.3653150000    -0.7892180000
   24      F      -4.3522500000     0.3021380000    -0.1385780000
   25      H       0.1936820000    -0.8613350000    -5.5750850000
   26      H       0.1031630000     0.4993150000    -6.7131870000
   27      H       1.3183180000     1.8308760000    -5.1005730000
 ----------------------------------------------------------------

    8   -1869.5970320709      8.52e-06  Convergence criterion met
 Total energy in the final basis set =    -1869.5970320709
    5   -1869.5725642022      8.24e-06  Convergence criterion met
 Total energy in the final basis set =    -1869.7138911354

                    Orbital Energies (a.u.)
 --------------------------------------------------------------

 Alpha MOs
 -- Occupied --
-90.1818 -90.1409 -25.3193 -25.3165 -25.3108 -19.6670 -19.6647 -19.6262
-19.6235 -14.8190 -14.8097 -14.7281 -10.8317 -10.6466 -10.6425 -10.6196
-10.6120 -10.6032 -10.5990 -10.5956  -8.4962  -8.4533  -6.4186  -6.4180
 -6.4170  -6.3758  -6.3752  -6.3745  -1.4847  -1.3919  -1.3873  -1.2668
 -1.2158  -1.1505  -1.1155  -1.1004  -1.0434  -1.0017  -0.9731  -0.9284
 -0.8893  -0.8442  -0.8062  -0.7824  -0.7497  -0.7248  -0.7087  -0.7066
 -0.6991  -0.6726  -0.6445  -0.6307  -0.6119  -0.6060  -0.5900  -0.5858
 -0.5726  -0.5689  -0.5604  -0.5515  -0.5475  -0.5426  -0.5404  -0.5296
 -0.5259  -0.5228  -0.5185  -0.4944  -0.4819  -0.4674  -0.4371  -0.4324
 -0.4265  -0.4151  -0.4114  -0.4053  -0.3995  -0.3844  -0.3778  -0.3594
 -0.3515  -0.3375  -0.3182  -0.2818

          Ground-State Mulliken Net Atomic Charges

     Atom                 Charge (a.u.)
  ----------------------------------------
      1 C                    -7.119812
      2 C                     0.758778
      3 C                     1.356996
      4 C                     0.345122
      5 H                     0.324781
      6 C                     4.348695
      7 C                     1.170212
      8 S                     1.866690
      9 C                    -1.142074
     10 H                     0.271643
     11 S                     0.285907
     12 O                    -0.895797
     13 O                    -0.752219
     14 N                    -1.051381
     15 H                     0.416869
     16 N                    -0.285951
     17 C                     0.330604
     18 N                    -0.662197
     19 O                    -0.688006
     20 O                    -0.644868
     21 H                     0.520472
     22 F                    -0.245427
     23 F                    -0.283982
     24 F                    -0.362020
     25 H                     0.271046
     26 H                     0.330716
     27 H                     0.535203
  ----------------------------------------
  Sum of atomic charges =    -1.000000

                    Cartesian Multipole Moments
 -----------------------------------------------------------------
    Charge (ESU x 10^10)
                -4.8032
    Dipole Moment (Debye)
         X       1.4213      Y      -1.5885      Z     -14.5801
       Tot      14.7351
    Quadrupole Moments (Debye-Ang)
        XX    -164.6086     XY       9.0758     YY    -147.5309
        XZ      36.3656     YZ     -15.8607     ZZ     -90.2925

 Total job time:  60.61s(wall), 459.43s(cpu)
        *  Thank you very much for using Q-Chem.  Have a nice day.  *
