 Q-Chem 5.4 (devel), Q-Chem, Inc., Pleasanton, CA (2021)
 Q-Chem 5.4.1 for Intel X86 EM64T Linux

User input:
--------------------------------------------------------------
$molecule
-1  1
C -1.4374658993  0.610361084 -0.8532594991
C -2.5431019155  0.5282702683 -1.7140596141
Cl -4.1699137013  0.5541040719 -1.0919757441
C -2.3955470139  0.4329047887 -3.087325563
H -3.2651617257  0.389016702 -3.734809149
C -1.1196778316  0.4060713106 -3.6657482998
C -0.0238713679  0.4638964655 -2.7898207394
S  1.5826686591  0.2421931642 -3.4473877378
C -0.1676233749  0.5694336835 -1.4085843737
H  0.7033854624  0.617697532 -0.7616344097
S -1.5925089569  0.7780677787  0.9530261861
O -2.2745701741 -0.4865701398  1.3464063405
O -0.1813280485  0.8726149332  1.3998673949
N -2.3414300538  2.0936015082  1.3124004264
H -3.3435175464  1.9435059659  1.1805676101
N -1.0374067125  0.369739993 -5.0582836727
C  0.0946598274  0.602128656 -5.6198936266
N  1.2905113224  0.8445389776 -4.977750127
O  2.571722874  1.1008324853 -2.8057301818
O  1.8929725919 -1.1836136217 -3.5290143176
H  0.1564437969  0.6700775768 -6.7021759272
H  2.1202447883  0.995908816 -5.5561399752
$end

$rem
jobtype sp
exchange M062X
basis 6-31+G*
SMX_GAS_PHASE = TRUE
solvent_method sm12
$end

$smx
solvent water
charges mk
$end
--------------------------------------------------------------

             Standard Nuclear Orientation (Angstroms)
    I     Atom           X                Y                Z
 ----------------------------------------------------------------
    1      C      -1.4374658993     0.6103610840    -0.8532594991
    2      C      -2.5431019155     0.5282702683    -1.7140596141
    3      Cl     -4.1699137013     0.5541040719    -1.0919757441
    4      C      -2.3955470139     0.4329047887    -3.0873255630
    5      H      -3.2651617257     0.3890167020    -3.7348091490
    6      C      -1.1196778316     0.4060713106    -3.6657482998
    7      C      -0.0238713679     0.4638964655    -2.7898207394
    8      S       1.5826686591     0.2421931642    -3.4473877378
    9      C      -0.1676233749     0.5694336835    -1.4085843737
   10      H       0.7033854624     0.6176975320    -0.7616344097
   11      S      -1.5925089569     0.7780677787     0.9530261861
   12      O      -2.2745701741    -0.4865701398     1.3464063405
   13      O      -0.1813280485     0.8726149332     1.3998673949
   14      N      -2.3414300538     2.0936015082     1.3124004264
   15      H      -3.3435175464     1.9435059659     1.1805676101
   16      N      -1.0374067125     0.3697399930    -5.0582836727
   17      C       0.0946598274     0.6021286560    -5.6198936266
   18      N       1.2905113224     0.8445389776    -4.9777501270
   19      O       2.5717228740     1.1008324853    -2.8057301818
   20      O       1.8929725919    -1.1836136217    -3.5290143176
   21      H       0.1564437969     0.6700775768    -6.7021759272
   22      H       2.1202447883     0.9959088160    -5.5561399752
 ----------------------------------------------------------------

    9   -1991.0114599014      4.66e-06  Convergence criterion met
 Total energy in the final basis set =    -1991.0114599014
    5   -1990.9944247098      7.21e-06  Convergence criterion met
 Total energy in the final basis set =    -1991.1228570083

                    Orbital Energies (a.u.)
 --------------------------------------------------------------

 Alpha MOs
 -- Occupied --
******** -90.1978 -90.1450 -19.6761 -19.6741 -19.6303 -19.6287 -14.8488
-14.7902 -14.7327 -10.6720 -10.6562 -10.6407 -10.6215 -10.6109 -10.6062
-10.5949  -9.8440  -8.5116  -8.4573  -7.5683  -7.5618  -7.5614  -6.4346
 -6.4330  -6.4323  -6.3798  -6.3792  -6.3785  -1.2790  -1.2204  -1.1585
 -1.1304  -1.1046  -1.0503  -1.0229  -0.9786  -0.9746  -0.9002  -0.8903
 -0.8082  -0.7823  -0.7403  -0.7132  -0.6671  -0.6649  -0.6494  -0.6123
 -0.5942  -0.5807  -0.5775  -0.5688  -0.5566  -0.5405  -0.5291  -0.5242
 -0.5076  -0.4943  -0.4816  -0.4568  -0.4526  -0.4375  -0.4231  -0.4173
 -0.4135  -0.4053  -0.4008  -0.3916  -0.3858  -0.3732  -0.3658  -0.3402
 -0.3357  -0.3260  -0.3025

          Ground-State Mulliken Net Atomic Charges

     Atom                 Charge (a.u.)
  ----------------------------------------
      1 C                    -5.304485
      2 C                     1.446147
      3 Cl                    0.225697
      4 C                    -0.930327
      5 H                     0.306591
      6 C                     1.929839
      7 C                     1.025930
      8 S                     2.013876
      9 C                    -0.110092
     10 H                     0.298790
     11 S                     0.447002
     12 O                    -0.686880
     13 O                    -0.887293
     14 N                    -0.953879
     15 H                     0.404720
     16 N                    -0.287016
     17 C                     0.792980
     18 N                    -0.467611
     19 O                    -0.638312
     20 O                    -0.554309
     21 H                     0.342842
     22 H                     0.585792
  ----------------------------------------
  Sum of atomic charges =    -1.000000

                    Cartesian Multipole Moments
 -----------------------------------------------------------------
    Charge (ESU x 10^10)
                -4.8032
    Dipole Moment (Debye)
         X       5.4794      Y      -2.0840      Z     -11.0399
       Tot      12.4999
    Quadrupole Moments (Debye-Ang)
        XX    -143.5418     XY       6.4479     YY    -141.4385
        XZ       4.2478     YZ     -18.7445     ZZ     -97.1001

 Total job time:  45.18s(wall), 305.77s(cpu)
        *  Thank you very much for using Q-Chem.  Have a nice day.  *
