 Q-Chem 5.4 (devel), Q-Chem, Inc., Pleasanton, CA (2021)
 Q-Chem 5.4.1 for Intel X86 EM64T Linux

User input:
--------------------------------------------------------------
$molecule
-1  1
C -1.4386309909  0.6502928693 -0.8142874386
C -2.5564565941  0.7036644394 -1.6643352976
Cl -4.1734415615  0.7814836542 -1.013720022
C -2.4387433483  0.7057079579 -3.0392440531
H -3.3240126285  0.7534317628 -3.6660272926
C -1.1705454001  0.6460266488 -3.6487779299
C -0.0540415575  0.5925404037 -2.7919313716
S  1.5838000373  0.4967220364 -3.4435732292
C -0.1866756477  0.5993021945 -1.4043709244
H  0.6963074051  0.5660493393 -0.771860983
S -1.5613703875  0.6544720455  0.9943905807
O -2.3067726124 -0.6045538868  1.2872355616
O -0.1422759459  0.6294754789  1.431078117
N -2.2326037773  1.9657750019  1.5030355069
H -3.2414246775  1.8890207552  1.3596870672
N -1.05370316  0.7033063095 -5.0119961649
C  0.1911407695  0.2962256731 -5.6275794552
N  1.2750559385  1.0518322215 -4.9820211096
O  2.4668407585  1.4599258754 -2.7823883848
O  2.0386318331 -0.9013239091 -3.4353398471
H  0.1792599589  0.5754687284 -6.6787619011
H  2.1370841949  1.0412885241 -5.5353575802
H -1.8947526957  0.4933840203 -5.5398852518
H  0.349973089 -0.7877721441 -5.5466675967
$end

$rem
jobtype sp
exchange M062X
basis 6-31+G*
SMX_GAS_PHASE = TRUE
solvent_method sm12
$end

$smx
solvent water
charges mk
$end
--------------------------------------------------------------

             Standard Nuclear Orientation (Angstroms)
    I     Atom           X                Y                Z
 ----------------------------------------------------------------
    1      C      -1.4386309909     0.6502928693    -0.8142874386
    2      C      -2.5564565941     0.7036644394    -1.6643352976
    3      Cl     -4.1734415615     0.7814836542    -1.0137200220
    4      C      -2.4387433483     0.7057079579    -3.0392440531
    5      H      -3.3240126285     0.7534317628    -3.6660272926
    6      C      -1.1705454001     0.6460266488    -3.6487779299
    7      C      -0.0540415575     0.5925404037    -2.7919313716
    8      S       1.5838000373     0.4967220364    -3.4435732292
    9      C      -0.1866756477     0.5993021945    -1.4043709244
   10      H       0.6963074051     0.5660493393    -0.7718609830
   11      S      -1.5613703875     0.6544720455     0.9943905807
   12      O      -2.3067726124    -0.6045538868     1.2872355616
   13      O      -0.1422759459     0.6294754789     1.4310781170
   14      N      -2.2326037773     1.9657750019     1.5030355069
   15      H      -3.2414246775     1.8890207552     1.3596870672
   16      N      -1.0537031600     0.7033063095    -5.0119961649
   17      C       0.1911407695     0.2962256731    -5.6275794552
   18      N       1.2750559385     1.0518322215    -4.9820211096
   19      O       2.4668407585     1.4599258754    -2.7823883848
   20      O       2.0386318331    -0.9013239091    -3.4353398471
   21      H       0.1792599589     0.5754687284    -6.6787619011
   22      H       2.1370841949     1.0412885241    -5.5353575802
   23      H      -1.8947526957     0.4933840203    -5.5398852518
   24      H       0.3499730890    -0.7877721441    -5.5466675967
 ----------------------------------------------------------------

    9   -1992.2049583111      4.09e-06  Convergence criterion met
 Total energy in the final basis set =    -1992.2049583111
    5   -1992.1818100418      9.06e-06  Convergence criterion met
 Total energy in the final basis set =    -1992.3291440644

                    Orbital Energies (a.u.)
 --------------------------------------------------------------

 Alpha MOs
 -- Occupied --
******** -90.1800 -90.1420 -19.6634 -19.6622 -19.6275 -19.6259 -14.8179
-14.8081 -14.7296 -10.6528 -10.6460 -10.6428 -10.6097 -10.6004 -10.5989
-10.5904  -9.8419  -8.4948  -8.4544  -7.5662  -7.5597  -7.5594  -6.4172
 -6.4163  -6.4157  -6.3769  -6.3762  -6.3756  -1.2624  -1.2166  -1.1436
 -1.1136  -1.1010  -1.0443  -1.0192  -0.9742  -0.9674  -0.8903  -0.8820
 -0.8049  -0.7766  -0.7488  -0.7115  -0.6678  -0.6505  -0.6391  -0.6065
 -0.5959  -0.5936  -0.5706  -0.5657  -0.5585  -0.5395  -0.5360  -0.5269
 -0.5199  -0.5102  -0.4925  -0.4708  -0.4489  -0.4433  -0.4347  -0.4240
 -0.4167  -0.4055  -0.4000  -0.3987  -0.3900  -0.3836  -0.3661  -0.3608
 -0.3380  -0.3307  -0.3170  -0.2817

          Ground-State Mulliken Net Atomic Charges

     Atom                 Charge (a.u.)
  ----------------------------------------
      1 C                    -6.853540
      2 C                     1.516562
      3 Cl                    0.208602
      4 C                     0.005498
      5 H                     0.312932
      6 C                     4.019838
      7 C                     0.079407
      8 S                     1.871232
      9 C                    -0.527941
     10 H                     0.280450
     11 S                     0.374219
     12 O                    -0.696741
     13 O                    -0.913560
     14 N                    -0.964404
     15 H                     0.403150
     16 N                    -0.363638
     17 C                     0.492404
     18 N                    -0.622132
     19 O                    -0.718649
     20 O                    -0.559019
     21 H                     0.328157
     22 H                     0.544600
     23 H                     0.515752
     24 H                     0.266824
  ----------------------------------------
  Sum of atomic charges =    -1.000000

                    Cartesian Multipole Moments
 -----------------------------------------------------------------
    Charge (ESU x 10^10)
                -4.8032
    Dipole Moment (Debye)
         X       1.6843      Y      -3.5106      Z     -15.0282
       Tot      15.5244
    Quadrupole Moments (Debye-Ang)
        XX    -143.9270     XY       1.5888     YY    -145.4905
        XZ      26.6796     YZ      -8.3988     ZZ     -75.1002

 Total job time:  45.49s(wall), 340.62s(cpu)
        *  Thank you very much for using Q-Chem.  Have a nice day.  *
