 Q-Chem 5.4 (devel), Q-Chem, Inc., Pleasanton, CA (2021)
 Q-Chem 5.4.1 for Intel X86 EM64T Linux

User input:
--------------------------------------------------------------
$molecule
-1  1
C -1.5887839773  1.0226703727 -0.8885276907
C -2.7481162538  0.5718162406 -1.5563094588
C -4.1060328571  0.4895443002 -0.8951013667
C -2.701851025  0.2048492779 -2.8929719835
H -3.5968601673 -0.1359787093 -3.4034704906
C -1.4961628282  0.259451655 -3.6078680114
C -0.3437509911  0.7125841534 -2.9482296168
C  0.9127193693  0.8872958298 -3.7230975267
C -0.4030166021  1.0859701652 -1.6074458829
S -1.4973662126  1.4730243237  0.8731102594
O -0.2146829383  2.215516037  0.9725798723
O -2.7000893608  2.3281347931  1.0846774212
N -1.4061613992  0.1945862888  1.763050443
H -2.3299997434 -0.2394304785  1.8006276895
N -1.4279532867 -0.0689380559 -4.9482464486
C -0.1367305292 -0.5805055625 -5.3872593832
N  0.8734217317  0.3906018025 -4.9796894403
H -2.2130601297 -0.6246755779 -5.2820695565
F -4.9497588389 -0.2986705868 -1.5875515039
F -4.7072387961  1.6891520766 -0.8082381749
F -4.0565224085 -0.0256053846  0.3461642544
H  1.73914235  0.4229744005 -5.512934083
C -0.0990639288 -0.7720795617 -6.8986555121
C -1.0967595628 -1.8125466591 -7.3476119248
C -0.8186781765 -3.1746784324 -7.1787882483
H  0.1376550833 -3.4754106026 -6.7557123476
C -1.7495714781 -4.1419953516 -7.5535571434
H -1.5178114269 -5.1950019938 -7.4205758709
C -2.9750342718 -3.758588813 -8.102884645
H -3.700033837 -4.5118100623 -8.3977166221
C -3.2611338954 -2.4047710825 -8.2756017248
H -4.2108102068 -2.0982876414 -8.7048791093
C -2.3264415558 -1.4382072706 -7.8989216336
H -2.5504513234 -0.3827590498 -8.0382449432
H  0.0707696464 -1.5436903164 -4.8937757675
H  0.9165882269 -1.0856432518 -7.1650694032
H -0.2997481252  0.1906044165 -7.3804079815
O  1.894396939  1.4947421878 -3.2753044689
H  0.500207787  1.4425741233 -1.1237419755
$end

$rem
jobtype sp
exchange M062X
basis 6-31G*
SMX_GAS_PHASE = TRUE
solvent_method sm12
$end

$smx
solvent water
charges mk
$end
--------------------------------------------------------------

             Standard Nuclear Orientation (Angstroms)
    I     Atom           X                Y                Z
 ----------------------------------------------------------------
    1      C      -1.5887839773     1.0226703727    -0.8885276907
    2      C      -2.7481162538     0.5718162406    -1.5563094588
    3      C      -4.1060328571     0.4895443002    -0.8951013667
    4      C      -2.7018510250     0.2048492779    -2.8929719835
    5      H      -3.5968601673    -0.1359787093    -3.4034704906
    6      C      -1.4961628282     0.2594516550    -3.6078680114
    7      C      -0.3437509911     0.7125841534    -2.9482296168
    8      C       0.9127193693     0.8872958298    -3.7230975267
    9      C      -0.4030166021     1.0859701652    -1.6074458829
   10      S      -1.4973662126     1.4730243237     0.8731102594
   11      O      -0.2146829383     2.2155160370     0.9725798723
   12      O      -2.7000893608     2.3281347931     1.0846774212
   13      N      -1.4061613992     0.1945862888     1.7630504430
   14      H      -2.3299997434    -0.2394304785     1.8006276895
   15      N      -1.4279532867    -0.0689380559    -4.9482464486
   16      C      -0.1367305292    -0.5805055625    -5.3872593832
   17      N       0.8734217317     0.3906018025    -4.9796894403
   18      H      -2.2130601297    -0.6246755779    -5.2820695565
   19      F      -4.9497588389    -0.2986705868    -1.5875515039
   20      F      -4.7072387961     1.6891520766    -0.8082381749
   21      F      -4.0565224085    -0.0256053846     0.3461642544
   22      H       1.7391423500     0.4229744005    -5.5129340830
   23      C      -0.0990639288    -0.7720795617    -6.8986555121
   24      C      -1.0967595628    -1.8125466591    -7.3476119248
   25      C      -0.8186781765    -3.1746784324    -7.1787882483
   26      H       0.1376550833    -3.4754106026    -6.7557123476
   27      C      -1.7495714781    -4.1419953516    -7.5535571434
   28      H      -1.5178114269    -5.1950019938    -7.4205758709
   29      C      -2.9750342718    -3.7585888130    -8.1028846450
   30      H      -3.7000338370    -4.5118100623    -8.3977166221
   31      C      -3.2611338954    -2.4047710825    -8.2756017248
   32      H      -4.2108102068    -2.0982876414    -8.7048791093
   33      C      -2.3264415558    -1.4382072706    -7.8989216336
   34      H      -2.5504513234    -0.3827590498    -8.0382449432
   35      H       0.0707696464    -1.5436903164    -4.8937757675
   36      H       0.9165882269    -1.0856432518    -7.1650694032
   37      H      -0.2997481252     0.1906044165    -7.3804079815
   38      O       1.8943969390     1.4947421878    -3.2753044689
   39      H       0.5002077870     1.4425741233    -1.1237419755
 ----------------------------------------------------------------

    9   -1704.6267692125      4.81e-06  Convergence criterion met
 Total energy in the final basis set =    -1704.6267692125
    5   -1704.6083659822      7.27e-06  Convergence criterion met
 Total energy in the final basis set =    -1704.7497069522

                    Orbital Energies (a.u.)
 --------------------------------------------------------------

 Alpha MOs
 -- Occupied --
-90.1172 -25.2921 -25.2900 -25.2815 -19.6119 -19.5995 -19.5980 -14.7907
-14.7852 -14.7019 -10.8096 -10.6639 -10.6327 -10.6160 -10.5982 -10.5819
-10.5739 -10.5717 -10.5705 -10.5647 -10.5582 -10.5555 -10.5553 -10.5544
-10.5543 -10.5539  -8.4296  -6.3521  -6.3516  -6.3508  -1.4599  -1.3676
 -1.3622  -1.1916  -1.1607  -1.0921  -1.0749  -1.0178  -0.9799  -0.9646
 -0.9486  -0.9072  -0.8882  -0.8562  -0.8434  -0.8189  -0.8094  -0.7526
 -0.7359  -0.7227  -0.6927  -0.6914  -0.6839  -0.6800  -0.6762  -0.6626
 -0.6351  -0.6083  -0.6046  -0.5878  -0.5798  -0.5683  -0.5660  -0.5554
 -0.5405  -0.5364  -0.5346  -0.5281  -0.5260  -0.5232  -0.5162  -0.5077
 -0.5045  -0.5031  -0.4956  -0.4882  -0.4862  -0.4790  -0.4721  -0.4631
 -0.4533  -0.4419  -0.4296  -0.4239  -0.4032  -0.4004  -0.3983  -0.3893
 -0.3751  -0.3597  -0.3445  -0.3392  -0.3299  -0.3262  -0.3150  -0.3085
 -0.3023  -0.2954  -0.2639

          Ground-State Mulliken Net Atomic Charges

     Atom                 Charge (a.u.)
  ----------------------------------------
      1 C                    -0.301998
      2 C                    -0.109144
      3 C                     0.841096
      4 C                    -0.165896
      5 H                     0.253825
      6 C                     0.374262
      7 C                     0.010640
      8 C                     0.632368
      9 C                    -0.320998
     10 S                     1.038759
     11 O                    -0.710043
     12 O                    -0.689146
     13 N                    -0.873655
     14 H                     0.314914
     15 N                    -0.646998
     16 C                     0.213546
     17 N                    -0.623317
     18 H                     0.392066
     19 F                    -0.259675
     20 F                    -0.278195
     21 F                    -0.287340
     22 H                     0.408754
     23 C                    -0.347846
     24 C                     0.086546
     25 C                    -0.225797
     26 H                     0.199788
     27 C                    -0.209878
     28 H                     0.205612
     29 C                    -0.209811
     30 H                     0.205107
     31 C                    -0.204181
     32 H                     0.206803
     33 C                    -0.234313
     34 H                     0.203029
     35 H                     0.181080
     36 H                     0.209993
     37 H                     0.201661
     38 O                    -0.681184
     39 H                     0.199569
  ----------------------------------------
  Sum of atomic charges =    -1.000000

                    Cartesian Multipole Moments
 -----------------------------------------------------------------
    Charge (ESU x 10^10)
                -4.8032
    Dipole Moment (Debye)
         X       4.4382      Y     -13.2045      Z     -13.2327
       Tot      19.2136
    Quadrupole Moments (Debye-Ang)
        XX    -174.6769     XY      13.0576     YY    -174.1385
        XZ      21.7654     YZ       9.5256     ZZ    -117.9009

 Total job time:  41.99s(wall), 310.74s(cpu)
        *  Thank you very much for using Q-Chem.  Have a nice day.  *
