 Q-Chem 5.4 (devel), Q-Chem, Inc., Pleasanton, CA (2021)
 Q-Chem 5.4.1 for Intel X86 EM64T Linux

User input:
--------------------------------------------------------------
$molecule
-1  1
C -1.554987  0.921081 -0.893991
C -2.680999  0.739647 -1.713231
Cl -4.29416  0.767545 -1.047334
C -2.574363  0.515889 -3.075194
H -3.461964  0.372524 -3.683816
C -1.304933  0.465279 -3.665416
C -0.167192  0.655823 -2.862558
C  1.168328  0.685794 -3.498682
C -0.304394  0.879198 -1.493695
S -1.665463  1.195187  0.89477
O -0.245402  1.300819  1.314877
O -2.42233  2.47712  1.001911
N -2.320017 -0.030029  1.604155
H -3.330501  0.014862  1.458916
N -1.14951  0.291355 -5.028261
C  0.084363 -0.30993 -5.47541
N  1.184438  0.368262 -4.82181
H -1.979262 -0.010467 -5.530631
O  2.193099  1.03162 -2.901661
H  0.585458  1.02852 -0.891117
H  2.0962  0.332693 -5.268629
C  0.131134 -1.830535 -5.175951
H  0.178241 -0.172063 -6.554021
H  0.066708 -2.040411 -4.107814
Cl  1.670012 -2.517722 -5.763783
Cl -1.245095 -2.647272 -5.967164
$end

$rem
jobtype sp
exchange M062X
basis 6-31+G*
SMX_GAS_PHASE = TRUE
solvent_method sm12
$end

$smx
solvent water
charges mk
$end
--------------------------------------------------------------

             Standard Nuclear Orientation (Angstroms)
    I     Atom           X                Y                Z
 ----------------------------------------------------------------
    1      C      -1.5549870000     0.9210810000    -0.8939910000
    2      C      -2.6809990000     0.7396470000    -1.7132310000
    3      Cl     -4.2941600000     0.7675450000    -1.0473340000
    4      C      -2.5743630000     0.5158890000    -3.0751940000
    5      H      -3.4619640000     0.3725240000    -3.6838160000
    6      C      -1.3049330000     0.4652790000    -3.6654160000
    7      C      -0.1671920000     0.6558230000    -2.8625580000
    8      C       1.1683280000     0.6857940000    -3.4986820000
    9      C      -0.3043940000     0.8791980000    -1.4936950000
   10      S      -1.6654630000     1.1951870000     0.8947700000
   11      O      -0.2454020000     1.3008190000     1.3148770000
   12      O      -2.4223300000     2.4771200000     1.0019110000
   13      N      -2.3200170000    -0.0300290000     1.6041550000
   14      H      -3.3305010000     0.0148620000     1.4589160000
   15      N      -1.1495100000     0.2913550000    -5.0282610000
   16      C       0.0843630000    -0.3099300000    -5.4754100000
   17      N       1.1844380000     0.3682620000    -4.8218100000
   18      H      -1.9792620000    -0.0104670000    -5.5306310000
   19      O       2.1930990000     1.0316200000    -2.9016610000
   20      H       0.5854580000     1.0285200000    -0.8911170000
   21      H       2.0962000000     0.3326930000    -5.2686290000
   22      C       0.1311340000    -1.8305350000    -5.1759510000
   23      H       0.1782410000    -0.1720630000    -6.5540210000
   24      H       0.0667080000    -2.0404110000    -4.1078140000
   25      Cl      1.6700120000    -2.5177220000    -5.7637830000
   26      Cl     -1.2450950000    -2.6472720000    -5.9671640000
 ----------------------------------------------------------------

    9   -2515.4728585286      5.63e-06  Convergence criterion met
 Total energy in the final basis set =    -2515.4728585286
    5   -2515.4514929912      7.55e-06  Convergence criterion met
 Total energy in the final basis set =    -2515.5905163926

                    Orbital Energies (a.u.)
 --------------------------------------------------------------

 Alpha MOs
 -- Occupied --
********-102.6842-102.6826 -90.1397 -19.6328 -19.6257 -19.6240 -14.8130
-14.8097 -14.7283 -10.6844 -10.6821 -10.6676 -10.6497 -10.6340 -10.5949
-10.5868 -10.5857 -10.5830  -9.8396  -9.8338  -9.8324  -8.4522  -7.5639
 -7.5582  -7.5574  -7.5571  -7.5567  -7.5513  -7.5511  -7.5499  -7.5497
 -6.3747  -6.3740  -6.3734  -1.2147  -1.1823  -1.1206  -1.0992  -1.0415
 -1.0181  -1.0136  -0.9721  -0.9589  -0.9325  -0.8863  -0.8705  -0.8215
 -0.7588  -0.7463  -0.7277  -0.7022  -0.6596  -0.6412  -0.6311  -0.5947
 -0.5879  -0.5754  -0.5618  -0.5562  -0.5514  -0.5336  -0.5236  -0.5228
 -0.5164  -0.5089  -0.4990  -0.4895  -0.4796  -0.4465  -0.4396  -0.4326
 -0.4101  -0.4040  -0.4023  -0.3968  -0.3951  -0.3859  -0.3819  -0.3787
 -0.3636  -0.3577  -0.3438  -0.3363  -0.3255  -0.3164  -0.2815

          Ground-State Mulliken Net Atomic Charges

     Atom                 Charge (a.u.)
  ----------------------------------------
      1 C                    -7.151561
      2 C                     1.120499
      3 Cl                    0.105705
      4 C                    -0.522687
      5 H                     0.307784
      6 C                     3.033287
      7 C                     1.970431
      8 C                     1.329070
      9 C                    -0.188927
     10 S                     0.312488
     11 O                    -0.925938
     12 O                    -0.707000
     13 N                    -0.994017
     14 H                     0.401229
     15 N                    -0.310145
     16 C                     0.691567
     17 N                    -0.414425
     18 H                     0.495616
     19 O                    -0.861561
     20 H                     0.269556
     21 H                     0.514306
     22 C                    -0.239864
     23 H                     0.320627
     24 H                     0.333650
     25 Cl                    0.015664
     26 Cl                    0.094647
  ----------------------------------------
  Sum of atomic charges =    -1.000000

                    Cartesian Multipole Moments
 -----------------------------------------------------------------
    Charge (ESU x 10^10)
                -4.8032
    Dipole Moment (Debye)
         X       4.0103      Y      -7.5867      Z     -12.1594
       Tot      14.8826
    Quadrupole Moments (Debye-Ang)
        XX    -161.9142     XY       8.6104     YY    -166.5873
        XZ      22.1084     YZ      -8.1277     ZZ    -121.5740

 Total job time:  58.77s(wall), 448.06s(cpu)
        *  Thank you very much for using Q-Chem.  Have a nice day.  *
