 Q-Chem 5.4 (devel), Q-Chem, Inc., Pleasanton, CA (2021)
 Q-Chem 5.4.1 for Intel X86 EM64T Linux

User input:
--------------------------------------------------------------
$molecule
-1  1
C -1.3759873841  0.7229715523 -0.7598804669
C -2.4532684123  0.5788318663 -1.6515281259
Cl -4.0999340441  0.6056818144 -1.0775510852
C -2.2691526636  0.4016306201 -3.008249447
H -3.1222494945  0.2985261704 -3.6721223699
C -0.9700822296  0.3497720502 -3.5476659879
C  0.1007260996  0.484794124 -2.6520649937
S  1.762763781  0.4081729079 -3.2246647552
C -0.0956929549  0.6726943253 -1.2847375493
H  0.7554909516  0.7887676167 -0.6197828778
S -1.580719548  0.9594913653  1.0266657261
O -0.1810527048  1.0426826937  1.5155001562
O -2.3317771935  2.2450396293  1.120540664
N -2.2808390054 -0.2742108273  1.6720341019
H -3.2830644002 -0.2128018337  1.4812112794
N -0.7807804715  0.2295837296 -4.8991866534
C  0.500919715 -0.2022236288 -5.4187988514
N  1.5445744742  0.7041943795 -4.8695838907
O  2.538929961  1.5179908004 -2.6661732094
O  2.3140375623 -0.9355939097 -2.9918936224
H -1.5868628212 -0.0954356472 -5.4278769764
C  2.8531640886  0.6063521808 -5.5580785949
C  0.4951817828 -0.1273607929 -6.9426103046
S -0.8830063814 -1.030400312 -7.7224538767
C -0.6586277067 -2.7276558596 -7.1246040004
C  0.5393101814 -3.4377925016 -7.7017764579
H  0.7295896144 -1.2352443445 -5.1083175213
H  2.7777458901  1.12406791 -6.5134662251
H  3.1554291047 -0.4348525091 -5.7164661368
H  3.6066072059  1.1189758663 -4.9583568001
H  1.4376485695 -0.4939334519 -7.3452919142
H  0.3578499552  0.9107633171 -7.2629602944
H -1.5497930029 -3.2776267973 -7.4396257551
H -0.5961218815 -2.7792641564 -6.034410866
F  0.5308556083 -3.4760616214 -9.0454094984
F  0.587545329 -4.7149888087 -7.2756230676
F  1.705059426 -2.8655629173 -7.3381387515
$end

$rem
jobtype sp
exchange M062X
basis 6-31+G*
SMX_GAS_PHASE = TRUE
solvent_method sm12
$end

$smx
solvent water
charges mk
$end
--------------------------------------------------------------

             Standard Nuclear Orientation (Angstroms)
    I     Atom           X                Y                Z
 ----------------------------------------------------------------
    1      C      -1.3759873841     0.7229715523    -0.7598804669
    2      C      -2.4532684123     0.5788318663    -1.6515281259
    3      Cl     -4.0999340441     0.6056818144    -1.0775510852
    4      C      -2.2691526636     0.4016306201    -3.0082494470
    5      H      -3.1222494945     0.2985261704    -3.6721223699
    6      C      -0.9700822296     0.3497720502    -3.5476659879
    7      C       0.1007260996     0.4847941240    -2.6520649937
    8      S       1.7627637810     0.4081729079    -3.2246647552
    9      C      -0.0956929549     0.6726943253    -1.2847375493
   10      H       0.7554909516     0.7887676167    -0.6197828778
   11      S      -1.5807195480     0.9594913653     1.0266657261
   12      O      -0.1810527048     1.0426826937     1.5155001562
   13      O      -2.3317771935     2.2450396293     1.1205406640
   14      N      -2.2808390054    -0.2742108273     1.6720341019
   15      H      -3.2830644002    -0.2128018337     1.4812112794
   16      N      -0.7807804715     0.2295837296    -4.8991866534
   17      C       0.5009197150    -0.2022236288    -5.4187988514
   18      N       1.5445744742     0.7041943795    -4.8695838907
   19      O       2.5389299610     1.5179908004    -2.6661732094
   20      O       2.3140375623    -0.9355939097    -2.9918936224
   21      H      -1.5868628212    -0.0954356472    -5.4278769764
   22      C       2.8531640886     0.6063521808    -5.5580785949
   23      C       0.4951817828    -0.1273607929    -6.9426103046
   24      S      -0.8830063814    -1.0304003120    -7.7224538767
   25      C      -0.6586277067    -2.7276558596    -7.1246040004
   26      C       0.5393101814    -3.4377925016    -7.7017764579
   27      H       0.7295896144    -1.2352443445    -5.1083175213
   28      H       2.7777458901     1.1240679100    -6.5134662251
   29      H       3.1554291047    -0.4348525091    -5.7164661368
   30      H       3.6066072059     1.1189758663    -4.9583568001
   31      H       1.4376485695    -0.4939334519    -7.3452919142
   32      H       0.3578499552     0.9107633171    -7.2629602944
   33      H      -1.5497930029    -3.2776267973    -7.4396257551
   34      H      -0.5961218815    -2.7792641564    -6.0344108660
   35      F       0.5308556083    -3.4760616214    -9.0454094984
   36      F       0.5875453290    -4.7149888087    -7.2756230676
   37      F       1.7050594260    -2.8655629173    -7.3381387515
 ----------------------------------------------------------------

    8   -2845.1850768108      9.68e-06  Convergence criterion met
 Total energy in the final basis set =    -2845.1850768108
    5   -2845.1621702592      6.03e-06  Convergence criterion met
 Total energy in the final basis set =    -2845.3000771526

                    Orbital Energies (a.u.)
 --------------------------------------------------------------

 Alpha MOs
 -- Occupied --
******** -90.1770 -90.1425 -89.9439 -25.3109 -25.3092 -25.3091 -19.6629
-19.6619 -19.6280 -19.6263 -14.8229 -14.8095 -14.7303 -10.8196 -10.6578
-10.6540 -10.6466 -10.6104 -10.6100 -10.6015 -10.6006 -10.6003 -10.5927
-10.5917  -9.8423  -8.4923  -8.4549  -8.2919  -7.5666  -7.5601  -7.5598
 -6.4145  -6.4138  -6.4133  -6.3774  -6.3768  -6.3761  -6.2130  -6.2105
 -6.2061  -1.4766  -1.3842  -1.3834  -1.2613  -1.2172  -1.1431  -1.1187
 -1.1015  -1.0539  -1.0220  -0.9755  -0.9715  -0.9472  -0.9054  -0.8896
 -0.8681  -0.8268  -0.8130  -0.7768  -0.7543  -0.7414  -0.7236  -0.7037
 -0.7029  -0.6974  -0.6617  -0.6542  -0.6440  -0.6277  -0.6139  -0.6057
 -0.5852  -0.5840  -0.5827  -0.5713  -0.5644  -0.5611  -0.5495  -0.5463
 -0.5393  -0.5387  -0.5268  -0.5236  -0.5216  -0.5151  -0.5129  -0.5067
 -0.4939  -0.4893  -0.4843  -0.4780  -0.4690  -0.4520  -0.4426  -0.4358
 -0.4323  -0.4227  -0.4123  -0.4055  -0.4036  -0.3990  -0.3935  -0.3869
 -0.3843  -0.3638  -0.3480  -0.3386  -0.3315  -0.3198  -0.3116  -0.2841

          Ground-State Mulliken Net Atomic Charges

     Atom                 Charge (a.u.)
  ----------------------------------------
      1 C                    -6.716269
      2 C                     0.665857
      3 Cl                    0.230239
      4 C                     1.798548
      5 H                     0.311003
      6 C                     2.304076
      7 C                    -1.377269
      8 S                     1.410537
      9 C                     0.332958
     10 H                     0.283109
     11 S                     0.405397
     12 O                    -0.932289
     13 O                    -0.692208
     14 N                    -0.974774
     15 H                     0.403122
     16 N                    -0.182532
     17 C                    -0.718900
     18 N                    -0.539846
     19 O                    -0.689519
     20 O                    -0.543372
     21 H                     0.477377
     22 C                    -0.080654
     23 C                     1.491153
     24 S                     0.464305
     25 C                    -0.377456
     26 C                     0.745865
     27 H                     0.275117
     28 H                     0.315677
     29 H                     0.303142
     30 H                     0.254042
     31 H                     0.322123
     32 H                     0.334909
     33 H                     0.341469
     34 H                     0.327701
     35 F                    -0.316079
     36 F                    -0.337020
     37 F                    -0.319572
  ----------------------------------------
  Sum of atomic charges =    -1.000033

                    Cartesian Multipole Moments
 -----------------------------------------------------------------
    Charge (ESU x 10^10)
                -4.8034
    Dipole Moment (Debye)
         X       1.9375      Y      -5.5921      Z     -13.5358
       Tot      14.7731
    Quadrupole Moments (Debye-Ang)
        XX    -196.1184     XY      16.2953     YY    -202.2829
        XZ      25.4586     YZ     -10.0522     ZZ    -154.8611

 Total job time:  95.19s(wall), 715.37s(cpu)
        *  Thank you very much for using Q-Chem.  Have a nice day.  *
