 Q-Chem 5.4 (devel), Q-Chem, Inc., Pleasanton, CA (2021)
 Q-Chem 5.4.1 for Intel X86 EM64T Linux

User input:
--------------------------------------------------------------
$molecule
-1  1
C -1.925328402  1.2148900581 -1.1113994142
C -2.8890198826  0.3326654582 -1.6018017059
Cl -4.5371191111  0.353999533 -1.0189486826
C -2.5678140924 -0.5983732691 -2.5849323589
H -3.3299231017 -1.2753404154 -2.9573352917
C -1.2706776512 -0.6565993962 -3.0825816472
C -0.2920461212  0.2109899568 -2.5976243067
C -0.6291979949  1.1473695373 -1.621175743
S -2.290510428  2.4605049274  0.1620535039
O -2.6724922684  1.6333095448  1.3440115217
O -1.0023955619  3.1800804321  0.3273544682
N -3.3749199357  3.4611287409 -0.3414326058
H -4.2865590201  3.0024890547 -0.2882231085
H  0.1172119474  1.8341455292 -1.2404074791
C  1.1137818406  0.1933577426 -3.1849562567
N  1.5188603387 -1.1453630019 -3.6041104394
C  1.1751614422  0.9450742151 -4.5095806557
C  1.6730142014 -1.2878657031 -4.9487369808
C  1.501632061  0.0676128402 -5.5354553476
O  1.910633885 -2.3391533703 -5.5433869393
C  0.9654886028  2.293455582 -4.7563496848
C  1.0919887719  2.7334815875 -6.0774755921
C  1.4140737169  1.8460845414 -7.1126385849
C  1.6248390897  0.4911142606 -6.8527227594
O  1.9869521123  0.7274785684 -2.2177739525
H -1.0326375876 -1.3851453112 -3.8526864836
H  1.4078472981 -1.9487531648 -2.9923033403
H  0.7096042304  2.9826559628 -3.9557146168
H  0.9346616718  3.7831401979 -6.3071030034
H  1.5013862461  2.2201884898 -8.1279967278
H  1.878391491 -0.2063848285 -7.6458524698
H  2.8613902115  0.8479636997 -2.6274513151
$end

$rem
jobtype sp
exchange M062X
basis 6-31+G*
SMX_GAS_PHASE = TRUE
solvent_method sm12
$end

$smx
solvent water
charges mk
$end
--------------------------------------------------------------

             Standard Nuclear Orientation (Angstroms)
    I     Atom           X                Y                Z
 ----------------------------------------------------------------
    1      C      -1.9253284020     1.2148900581    -1.1113994142
    2      C      -2.8890198826     0.3326654582    -1.6018017059
    3      Cl     -4.5371191111     0.3539995330    -1.0189486826
    4      C      -2.5678140924    -0.5983732691    -2.5849323589
    5      H      -3.3299231017    -1.2753404154    -2.9573352917
    6      C      -1.2706776512    -0.6565993962    -3.0825816472
    7      C      -0.2920461212     0.2109899568    -2.5976243067
    8      C      -0.6291979949     1.1473695373    -1.6211757430
    9      S      -2.2905104280     2.4605049274     0.1620535039
   10      O      -2.6724922684     1.6333095448     1.3440115217
   11      O      -1.0023955619     3.1800804321     0.3273544682
   12      N      -3.3749199357     3.4611287409    -0.3414326058
   13      H      -4.2865590201     3.0024890547    -0.2882231085
   14      H       0.1172119474     1.8341455292    -1.2404074791
   15      C       1.1137818406     0.1933577426    -3.1849562567
   16      N       1.5188603387    -1.1453630019    -3.6041104394
   17      C       1.1751614422     0.9450742151    -4.5095806557
   18      C       1.6730142014    -1.2878657031    -4.9487369808
   19      C       1.5016320610     0.0676128402    -5.5354553476
   20      O       1.9106338850    -2.3391533703    -5.5433869393
   21      C       0.9654886028     2.2934555820    -4.7563496848
   22      C       1.0919887719     2.7334815875    -6.0774755921
   23      C       1.4140737169     1.8460845414    -7.1126385849
   24      C       1.6248390897     0.4911142606    -6.8527227594
   25      O       1.9869521123     0.7274785684    -2.2177739525
   26      H      -1.0326375876    -1.3851453112    -3.8526864836
   27      H       1.4078472981    -1.9487531648    -2.9923033403
   28      H       0.7096042304     2.9826559628    -3.9557146168
   29      H       0.9346616718     3.7831401979    -6.3071030034
   30      H       1.5013862461     2.2201884898    -8.1279967278
   31      H       1.8783914910    -0.2063848285    -7.6458524698
   32      H       2.8613902115     0.8479636997    -2.6274513151
 ----------------------------------------------------------------

    9   -1807.8822255645      4.41e-06  Convergence criterion met
 Total energy in the final basis set =    -1807.8822255645
    5   -1807.8666260403      4.46e-06  Convergence criterion met
 Total energy in the final basis set =    -1808.0039831470

                    Orbital Energies (a.u.)
 --------------------------------------------------------------

 Alpha MOs
 -- Occupied --
******** -90.1405 -19.6706 -19.6394 -19.6270 -19.6252 -14.8045 -14.7296
-10.6801 -10.6776 -10.6410 -10.6007 -10.5884 -10.5852 -10.5835 -10.5819
-10.5793 -10.5790 -10.5781 -10.5766 -10.5751 -10.5739  -9.8376  -8.4531
 -7.5618  -7.5555  -7.5551  -6.3756  -6.3749  -6.3743  -1.2157  -1.1949
 -1.1751  -1.1000  -1.0680  -1.0194  -0.9830  -0.9737  -0.9618  -0.8863
 -0.8809  -0.8769  -0.8601  -0.7895  -0.7495  -0.7470  -0.7106  -0.7012
 -0.6798  -0.6638  -0.6372  -0.6153  -0.5942  -0.5839  -0.5792  -0.5672
 -0.5577  -0.5530  -0.5517  -0.5272  -0.5256  -0.5215  -0.5204  -0.5060
 -0.5037  -0.4908  -0.4733  -0.4572  -0.4550  -0.4426  -0.4371  -0.4332
 -0.4275  -0.4180  -0.4011  -0.3961  -0.3902  -0.3825  -0.3692  -0.3581
 -0.3507  -0.3380  -0.3362  -0.3305  -0.3264  -0.3124  -0.3013

          Ground-State Mulliken Net Atomic Charges

     Atom                 Charge (a.u.)
  ----------------------------------------
      1 C                    -7.011003
      2 C                     0.609129
      3 Cl                    0.118087
      4 C                     1.148807
      5 H                     0.296493
      6 C                     1.274988
      7 C                     1.350796
      8 C                    -1.274853
      9 S                     0.311148
     10 O                    -0.706759
     11 O                    -0.875275
     12 N                    -0.981542
     13 H                     0.400036
     14 H                     0.286765
     15 C                     3.444761
     16 N                    -0.371959
     17 C                    -0.650428
     18 C                     0.516028
     19 C                     0.242505
     20 O                    -0.784260
     21 C                    -0.137483
     22 C                     0.102402
     23 C                     0.504451
     24 C                    -0.648056
     25 O                    -0.658845
     26 H                     0.314887
     27 H                     0.519702
     28 H                     0.268004
     29 H                     0.270972
     30 H                     0.271802
     31 H                     0.277789
     32 H                     0.570911
  ----------------------------------------
  Sum of atomic charges =    -1.000000

                    Cartesian Multipole Moments
 -----------------------------------------------------------------
    Charge (ESU x 10^10)
                -4.8032
    Dipole Moment (Debye)
         X      11.0354      Y     -10.8257      Z      -3.2791
       Tot      15.8028
    Quadrupole Moments (Debye-Ang)
        XX    -176.5297     XY      43.3655     YY    -194.7642
        XZ      11.3933     YZ     -31.7000     ZZ    -151.1417

 Total job time:  97.96s(wall), 604.59s(cpu)
        *  Thank you very much for using Q-Chem.  Have a nice day.  *
