 Q-Chem 5.4 (devel), Q-Chem, Inc., Pleasanton, CA (2021)
 Q-Chem 5.4.1 for Intel X86 EM64T Linux

User input:
--------------------------------------------------------------
$molecule
-1  1
C -2.15683091  0.846773113 -1.2259006632
C -2.2648218198  1.8960213737 -2.1414599958
Cl -3.4766854768  3.1396895667 -1.9654906591
C -1.3976415718  1.9977020383 -3.2265606105
H -1.5014978319  2.8219921925 -3.9245985575
C -0.4044754402  1.0426995856 -3.4027478522
C -0.2901722399 -0.0194303818 -2.5049536197
C -1.1624328952 -0.1098718303 -1.4188770605
S -3.2358929504  0.693504941  0.2312592156
O -4.5947423418  0.5518888049 -0.3660246178
O -2.7411332799 -0.5378336791  0.8958186472
N -3.0401467501  1.9090697594  1.1856844733
H -3.545066791  2.7086336274  0.7981587762
H -1.0701371974 -0.908691443 -0.6899303808
H  0.2780803995  1.1183338791 -4.2434274066
C  0.8052158415 -1.0139422856 -2.7320917129
N  0.5429402658 -2.2813947843 -2.3317258325
O  1.8780006292 -0.6871810084 -3.2467575291
N  1.4723294212 -3.3060165134 -2.4118494693
C  1.7680388772 -3.8201887106 -3.7804947724
C  3.0900384924 -4.5772715952 -3.5638078184
C  3.7062768879 -3.8462112971 -2.3940013784
C  2.7083933327 -3.1018789774 -1.7567766826
C  0.6307827556 -4.6580401211 -4.3252500904
C  2.965749245 -2.3339342145 -0.6285452981
C  4.2749402003 -2.3304398283 -0.1326043961
C  5.2826632367 -3.0730916135 -0.7502279804
C  4.9980104827 -3.8392689877 -1.8898477252
H -0.37557076 -2.5399580253 -1.9893413797
H  1.9476354358 -2.9573070619 -4.4364808335
H  3.7142006612 -4.5765050358 -4.4606452978
H  2.8824133894 -5.6220342889 -3.294162778
H -0.2919029177 -4.0724341872 -4.3968119731
H  0.4489471874 -5.5256426279 -3.6821055091
H  0.8818648856 -5.0148114684 -5.3293457404
H  2.1824082456 -1.7470648145 -0.1556453061
H  4.5071121644 -1.732705141  0.7443677051
H  6.2923702769 -3.0516016505 -0.3513056431
H  5.78208686 -4.4133353092 -2.3775102471
$end

$rem
jobtype sp
exchange M062X
basis 6-31+G*
SMX_GAS_PHASE = TRUE
solvent_method sm12
$end

$smx
solvent water
charges mk
$end
--------------------------------------------------------------

             Standard Nuclear Orientation (Angstroms)
    I     Atom           X                Y                Z
 ----------------------------------------------------------------
    1      C      -2.1568309100     0.8467731130    -1.2259006632
    2      C      -2.2648218198     1.8960213737    -2.1414599958
    3      Cl     -3.4766854768     3.1396895667    -1.9654906591
    4      C      -1.3976415718     1.9977020383    -3.2265606105
    5      H      -1.5014978319     2.8219921925    -3.9245985575
    6      C      -0.4044754402     1.0426995856    -3.4027478522
    7      C      -0.2901722399    -0.0194303818    -2.5049536197
    8      C      -1.1624328952    -0.1098718303    -1.4188770605
    9      S      -3.2358929504     0.6935049410     0.2312592156
   10      O      -4.5947423418     0.5518888049    -0.3660246178
   11      O      -2.7411332799    -0.5378336791     0.8958186472
   12      N      -3.0401467501     1.9090697594     1.1856844733
   13      H      -3.5450667910     2.7086336274     0.7981587762
   14      H      -1.0701371974    -0.9086914430    -0.6899303808
   15      H       0.2780803995     1.1183338791    -4.2434274066
   16      C       0.8052158415    -1.0139422856    -2.7320917129
   17      N       0.5429402658    -2.2813947843    -2.3317258325
   18      O       1.8780006292    -0.6871810084    -3.2467575291
   19      N       1.4723294212    -3.3060165134    -2.4118494693
   20      C       1.7680388772    -3.8201887106    -3.7804947724
   21      C       3.0900384924    -4.5772715952    -3.5638078184
   22      C       3.7062768879    -3.8462112971    -2.3940013784
   23      C       2.7083933327    -3.1018789774    -1.7567766826
   24      C       0.6307827556    -4.6580401211    -4.3252500904
   25      C       2.9657492450    -2.3339342145    -0.6285452981
   26      C       4.2749402003    -2.3304398283    -0.1326043961
   27      C       5.2826632367    -3.0730916135    -0.7502279804
   28      C       4.9980104827    -3.8392689877    -1.8898477252
   29      H      -0.3755707600    -2.5399580253    -1.9893413797
   30      H       1.9476354358    -2.9573070619    -4.4364808335
   31      H       3.7142006612    -4.5765050358    -4.4606452978
   32      H       2.8824133894    -5.6220342889    -3.2941627780
   33      H      -0.2919029177    -4.0724341872    -4.3968119731
   34      H       0.4489471874    -5.5256426279    -3.6821055091
   35      H       0.8818648856    -5.0148114684    -5.3293457404
   36      H       2.1824082456    -1.7470648145    -0.1556453061
   37      H       4.5071121644    -1.7327051410     0.7443677051
   38      H       6.2923702769    -3.0516016505    -0.3513056431
   39      H       5.7820868600    -4.4133353092    -2.3775102471
 ----------------------------------------------------------------

    9   -1866.5715221419      4.15e-06  Convergence criterion met
 Total energy in the final basis set =    -1866.5715221419
    5   -1866.5584701585      4.14e-06  Convergence criterion met
 Total energy in the final basis set =    -1866.6804845691

                    Orbital Energies (a.u.)
 --------------------------------------------------------------

 Alpha MOs
 -- Occupied --
******** -90.1424 -19.6378 -19.6289 -19.6265 -14.8377 -14.8214 -14.7303
-10.6824 -10.6472 -10.6049 -10.5963 -10.5936 -10.5925 -10.5914 -10.5888
-10.5867 -10.5652 -10.5645 -10.5642 -10.5622 -10.5610 -10.5587 -10.5429
 -9.8399  -8.4548  -7.5643  -7.5577  -7.5572  -6.3773  -6.3767  -6.3760
 -1.2180  -1.1950  -1.1304  -1.1021  -1.0254  -1.0106  -0.9752  -0.9668
 -0.9487  -0.8949  -0.8863  -0.8663  -0.8575  -0.8314  -0.7808  -0.7506
 -0.7471  -0.7153  -0.6955  -0.6861  -0.6824  -0.6661  -0.6404  -0.6160
 -0.5888  -0.5802  -0.5773  -0.5678  -0.5593  -0.5570  -0.5381  -0.5305
 -0.5295  -0.5251  -0.5191  -0.5065  -0.5026  -0.4907  -0.4841  -0.4760
 -0.4668  -0.4561  -0.4505  -0.4459  -0.4356  -0.4350  -0.4282  -0.4190
 -0.4112  -0.4033  -0.4008  -0.3977  -0.3846  -0.3773  -0.3708  -0.3607
 -0.3478  -0.3420  -0.3366  -0.3246  -0.3120  -0.3043  -0.2672

          Ground-State Mulliken Net Atomic Charges

     Atom                 Charge (a.u.)
  ----------------------------------------
      1 C                    -4.740341
      2 C                     0.570515
      3 Cl                    0.205364
      4 C                     1.427713
      5 H                     0.299626
      6 C                     0.755576
      7 C                     1.523948
      8 C                    -1.241445
      9 S                     0.476798
     10 O                    -0.711544
     11 O                    -0.862968
     12 N                    -0.978976
     13 H                     0.397547
     14 H                     0.292879
     15 H                     0.300613
     16 C                     1.062525
     17 N                    -0.218832
     18 O                    -0.526248
     19 N                    -0.019989
     20 C                    -0.100222
     21 C                     0.630379
     22 C                     1.601265
     23 C                    -2.127611
     24 C                    -0.235423
     25 C                    -0.433439
     26 C                    -0.917552
     27 C                    -0.071666
     28 C                    -0.398632
     29 H                     0.521757
     30 H                     0.243193
     31 H                     0.273157
     32 H                     0.258208
     33 H                     0.227870
     34 H                     0.237723
     35 H                     0.248104
     36 H                     0.257662
     37 H                     0.250085
     38 H                     0.252736
     39 H                     0.269607
  ----------------------------------------
  Sum of atomic charges =    -1.000039

                    Cartesian Multipole Moments
 -----------------------------------------------------------------
    Charge (ESU x 10^10)
                -4.8034
    Dipole Moment (Debye)
         X      13.7654      Y      -3.8680      Z      -4.8325
       Tot      15.0931
    Quadrupole Moments (Debye-Ang)
        XX    -231.9851     XY       8.7418     YY    -155.1747
        XZ      15.0493     YZ       7.0610     ZZ    -157.4826

 Total job time:  96.41s(wall), 732.11s(cpu)
        *  Thank you very much for using Q-Chem.  Have a nice day.  *
