 Q-Chem 5.4 (devel), Q-Chem, Inc., Pleasanton, CA (2021)
 Q-Chem 5.4.1 for Intel X86 EM64T Linux

User input:
--------------------------------------------------------------
$molecule
-1  1
C -1.6330962577  1.0402598821 -1.1296783828
C -2.8699433252  0.8895846797 -1.770223897
C -2.9552860681  0.123223845 -2.9393353871
C -1.8280951359 -0.4952684944 -3.470591612
C -0.6187467197 -0.3335313037 -2.8125589751
C -0.5050620903  0.420789114 -1.6498025178
S -1.4075554989  2.0471308264  0.3827066136
O -1.8446274535  3.4029495712 -0.0537706425
O -2.2951283863  1.3993110889  1.3796414914
N  0.0712519137  1.9384604981  0.84014123
H  0.6411154401  2.5669394494  0.2685769538
Cl -4.299172181  1.632929289 -1.1444320899
Cl -4.4645500676 -0.0780536735 -3.7693294254
S  0.8258303832 -1.1591212186 -3.4515244303
H -1.9043263069 -1.0818199145 -4.3808672038
H  0.4483458346  0.537730112 -1.1421538338
O  0.5774926457 -1.4579154974 -4.8597265771
O  1.9915772059 -0.367417641 -3.0668505318
N  0.9797336266 -2.6098447299 -2.6871794283
H  0.1874224167 -3.2283546434 -2.8725666487
H  1.1297380247 -2.5004422392 -1.6818977051
$end

$rem
jobtype sp
exchange M062X
basis 6-31+G*
SMX_GAS_PHASE = TRUE
solvent_method sm12
$end

$smx
solvent water
charges mk
$end
--------------------------------------------------------------

             Standard Nuclear Orientation (Angstroms)
    I     Atom           X                Y                Z
 ----------------------------------------------------------------
    1      C      -1.6330962577     1.0402598821    -1.1296783828
    2      C      -2.8699433252     0.8895846797    -1.7702238970
    3      C      -2.9552860681     0.1232238450    -2.9393353871
    4      C      -1.8280951359    -0.4952684944    -3.4705916120
    5      C      -0.6187467197    -0.3335313037    -2.8125589751
    6      C      -0.5050620903     0.4207891140    -1.6498025178
    7      S      -1.4075554989     2.0471308264     0.3827066136
    8      O      -1.8446274535     3.4029495712    -0.0537706425
    9      O      -2.2951283863     1.3993110889     1.3796414914
   10      N       0.0712519137     1.9384604981     0.8401412300
   11      H       0.6411154401     2.5669394494     0.2685769538
   12      Cl     -4.2991721810     1.6329292890    -1.1444320899
   13      Cl     -4.4645500676    -0.0780536735    -3.7693294254
   14      S       0.8258303832    -1.1591212186    -3.4515244303
   15      H      -1.9043263069    -1.0818199145    -4.3808672038
   16      H       0.4483458346     0.5377301120    -1.1421538338
   17      O       0.5774926457    -1.4579154974    -4.8597265771
   18      O       1.9915772059    -0.3674176410    -3.0668505318
   19      N       0.9797336266    -2.6098447299    -2.6871794283
   20      H       0.1874224167    -3.2283546434    -2.8725666487
   21      H       1.1297380247    -2.5004422392    -1.6818977051
 ----------------------------------------------------------------

    8   -2358.3562608498      8.51e-06  Convergence criterion met
 Total energy in the final basis set =    -2358.3562608498
    5   -2358.3445110273      6.70e-06  Convergence criterion met
 Total energy in the final basis set =    -2358.4578722363

                    Orbital Energies (a.u.)
 --------------------------------------------------------------

 Alpha MOs
 -- Occupied --
********-102.6934 -90.1830 -90.1436 -19.6652 -19.6633 -19.6280 -19.6273
-14.8103 -14.7335 -10.6629 -10.6575 -10.6209 -10.6150 -10.6095 -10.6027
 -9.8464  -9.8424  -8.4964  -8.4560  -7.5708  -7.5670  -7.5641  -7.5636
 -7.5601  -7.5594  -6.4187  -6.4183  -6.4174  -6.3783  -6.3779  -6.3774
 -1.2661  -1.2182  -1.1516  -1.1024  -1.0539  -1.0386  -0.9869  -0.9828
 -0.9735  -0.8908  -0.8665  -0.7778  -0.7603  -0.7064  -0.6852  -0.6456
 -0.6230  -0.6088  -0.5996  -0.5891  -0.5788  -0.5581  -0.5424  -0.5387
 -0.5335  -0.5203  -0.4949  -0.4798  -0.4452  -0.4420  -0.4406  -0.4338
 -0.4267  -0.4175  -0.4069  -0.4049  -0.4019  -0.3957  -0.3868  -0.3815
 -0.3611  -0.3389  -0.3372  -0.3267  -0.3193

          Ground-State Mulliken Net Atomic Charges

     Atom                 Charge (a.u.)
  ----------------------------------------
      1 C                    -4.663992
      2 C                    -0.405920
      3 C                     0.074606
      4 C                     1.311277
      5 C                     1.400186
      6 C                     0.781634
      7 S                     0.530447
      8 O                    -0.720758
      9 O                    -0.783732
     10 N                    -1.102498
     11 H                     0.428680
     12 Cl                    0.038172
     13 Cl                    0.532592
     14 S                     2.042413
     15 H                     0.337477
     16 H                     0.305919
     17 O                    -0.634438
     18 O                    -0.719598
     19 N                    -0.777977
     20 H                     0.514330
     21 H                     0.511180
  ----------------------------------------
  Sum of atomic charges =    -1.000000

                    Cartesian Multipole Moments
 -----------------------------------------------------------------
    Charge (ESU x 10^10)
                -4.8032
    Dipole Moment (Debye)
         X       5.1990      Y     -12.1585      Z      -0.2126
       Tot      13.2251
    Quadrupole Moments (Debye-Ang)
        XX    -154.3490     XY      22.2096     YY    -143.0898
        XZ      18.0025     YZ      -7.5852     ZZ    -161.3354

 Total job time:  34.64s(wall), 259.34s(cpu)
        *  Thank you very much for using Q-Chem.  Have a nice day.  *
