 Q-Chem 5.4 (devel), Q-Chem, Inc., Pleasanton, CA (2021)
 Q-Chem 5.4.1 for Intel X86 EM64T Linux

User input:
--------------------------------------------------------------
$molecule
-1  1
S -2.1973282754  1.3705892637 -1.0360985931
O -2.1725651335  2.8546353664 -1.1939054568
O -3.5548242513  0.8176452815 -0.7344353903
N -1.070840213  0.9323607501 -0.0466100378
H -1.2297678977 -0.046590363  0.201995169
C -1.8252201054  0.8103926774 -2.7258580688
N -1.7575319765 -0.6413373425 -2.8159976612
C -1.0622136194 -1.0789179843 -4.057318139
C -2.1713784291 -1.1366612177 -5.0718096599
C -3.357173259 -1.1673598087 -4.351165134
O -3.129732829 -1.0961295726 -2.9894099895
C -2.203772185 -1.2157802121 -6.4557605157
C -3.4491352417 -1.327814664 -7.088239644
C -4.6276775585 -1.3640618831 -6.3391497872
C -4.6041515975 -1.2820090078 -4.9414873194
H -0.8378346585  1.2220041573 -2.943818794
H -2.5703002495  1.2513864284 -3.3996726339
H -0.258722638 -0.3803003057 -4.2927085735
H -1.2859039989 -1.1959495109 -7.0364404895
H -3.4982662433 -1.3862488091 -8.1711813909
H -5.5839897804 -1.4493707194 -6.8467349288
H -5.5127319526 -1.3018975945 -4.3485303341
H -0.6312779068 -2.0709849294 -3.8903526277
$end

$rem
jobtype sp
exchange M062X
basis 6-31+G*
SMX_GAS_PHASE = TRUE
solvent_method sm12
$end

$smx
solvent water
charges mk
$end
--------------------------------------------------------------

             Standard Nuclear Orientation (Angstroms)
    I     Atom           X                Y                Z
 ----------------------------------------------------------------
    1      S      -2.1973282754     1.3705892637    -1.0360985931
    2      O      -2.1725651335     2.8546353664    -1.1939054568
    3      O      -3.5548242513     0.8176452815    -0.7344353903
    4      N      -1.0708402130     0.9323607501    -0.0466100378
    5      H      -1.2297678977    -0.0465903630     0.2019951690
    6      C      -1.8252201054     0.8103926774    -2.7258580688
    7      N      -1.7575319765    -0.6413373425    -2.8159976612
    8      C      -1.0622136194    -1.0789179843    -4.0573181390
    9      C      -2.1713784291    -1.1366612177    -5.0718096599
   10      C      -3.3571732590    -1.1673598087    -4.3511651340
   11      O      -3.1297328290    -1.0961295726    -2.9894099895
   12      C      -2.2037721850    -1.2157802121    -6.4557605157
   13      C      -3.4491352417    -1.3278146640    -7.0882396440
   14      C      -4.6276775585    -1.3640618831    -6.3391497872
   15      C      -4.6041515975    -1.2820090078    -4.9414873194
   16      H      -0.8378346585     1.2220041573    -2.9438187940
   17      H      -2.5703002495     1.2513864284    -3.3996726339
   18      H      -0.2587226380    -0.3803003057    -4.2927085735
   19      H      -1.2859039989    -1.1959495109    -7.0364404895
   20      H      -3.4982662433    -1.3862488091    -8.1711813909
   21      H      -5.5839897804    -1.4493707194    -6.8467349288
   22      H      -5.5127319526    -1.3018975945    -4.3485303341
   23      H      -0.6312779068    -2.0709849294    -3.8903526277
 ----------------------------------------------------------------

    8   -1043.2541203831      6.55e-06  Convergence criterion met
 Total energy in the final basis set =    -1043.2541203831
    5   -1043.2412338129      5.83e-06  Convergence criterion met
 Total energy in the final basis set =    -1043.3773864688

                    Orbital Energies (a.u.)
 --------------------------------------------------------------

 Alpha MOs
 -- Occupied --
-90.1315 -19.7104 -19.6251 -19.6225 -14.8442 -14.7289 -10.6230 -10.6097
-10.6038 -10.5752 -10.5744 -10.5725 -10.5705 -10.5662  -8.4454  -6.3678
 -6.3670  -6.3664  -1.2427  -1.2093  -1.0948  -1.0099  -0.9797  -0.9695
 -0.8916  -0.8559  -0.8278  -0.7468  -0.7087  -0.7009  -0.6735  -0.6134
 -0.6022  -0.5860  -0.5751  -0.5657  -0.5374  -0.5287  -0.5238  -0.5126
 -0.5061  -0.4945  -0.4713  -0.4598  -0.4381  -0.4271  -0.4244  -0.4131
 -0.3967  -0.3793  -0.3619  -0.3435  -0.3287  -0.3210  -0.3101  -0.2906

          Ground-State Mulliken Net Atomic Charges

     Atom                 Charge (a.u.)
  ----------------------------------------
      1 S                     0.613982
      2 O                    -0.894592
      3 O                    -0.814907
      4 N                    -1.073869
      5 H                     0.399691
      6 C                    -0.485714
      7 N                    -0.605382
      8 C                     0.303766
      9 C                     0.864312
     10 C                    -2.576621
     11 O                    -0.256104
     12 C                     0.547478
     13 C                     0.571062
     14 C                     0.029333
     15 C                     0.123383
     16 H                     0.293799
     17 H                     0.283869
     18 H                     0.293607
     19 H                     0.284195
     20 H                     0.263245
     21 H                     0.268701
     22 H                     0.272764
     23 H                     0.294001
  ----------------------------------------
  Sum of atomic charges =    -1.000000

                    Cartesian Multipole Moments
 -----------------------------------------------------------------
    Charge (ESU x 10^10)
                -4.8032
    Dipole Moment (Debye)
         X      12.3247      Y      -9.0227      Z      -1.0469
       Tot      15.3102
    Quadrupole Moments (Debye-Ang)
        XX    -125.5926     XY      17.8242     YY    -119.0066
        XZ      -4.8450     YZ       5.7431     ZZ     -70.8614

 Total job time:  28.42s(wall), 213.36s(cpu)
        *  Thank you very much for using Q-Chem.  Have a nice day.  *
