 Q-Chem 5.4 (devel), Q-Chem, Inc., Pleasanton, CA (2021)
 Q-Chem 5.4.1 for Intel X86 EM64T Linux

User input:
--------------------------------------------------------------
$molecule
-1  1
C -1.3664153165  0.7130774701 -0.9011639358
C -2.5491458926  0.9569773045 -1.5951758928
H -3.4806787331  1.0745040809 -1.0490657955
C -2.5389499441  1.0521574127 -2.9833862911
H -3.4617687789  1.2474400234 -3.5237718571
C -1.3425738055  0.8962443673 -3.6992594089
N -1.3171383614  1.0503059446 -5.0805279894
C -0.1548854234  0.6458868183 -2.9882303759
H  0.7768675591  0.5253606401 -3.5351646078
C -0.168503753  0.5546837903 -1.6036515604
H  0.7577663659  0.3618345542 -1.0688315752
S -1.3773623031  0.5383260296  0.8834961068
O -1.2077831188 -0.9236342012  1.1427914631
O -0.189069204  1.3383022733  1.3278144815
N -2.7491254716  1.000942873  1.4690350808
H -2.8053237724  2.0194395862  1.3869293798
H -2.2028919326  0.867666788 -5.5413979545
H -0.5491921142  0.5753172447 -5.5440622677
$end

$rem
jobtype sp
exchange M062X
basis 6-31+G*
SMX_GAS_PHASE = TRUE
solvent_method sm12
$end

$smx
solvent water
charges mk
$end
--------------------------------------------------------------

             Standard Nuclear Orientation (Angstroms)
    I     Atom           X                Y                Z
 ----------------------------------------------------------------
    1      C      -1.3664153165     0.7130774701    -0.9011639358
    2      C      -2.5491458926     0.9569773045    -1.5951758928
    3      H      -3.4806787331     1.0745040809    -1.0490657955
    4      C      -2.5389499441     1.0521574127    -2.9833862911
    5      H      -3.4617687789     1.2474400234    -3.5237718571
    6      C      -1.3425738055     0.8962443673    -3.6992594089
    7      N      -1.3171383614     1.0503059446    -5.0805279894
    8      C      -0.1548854234     0.6458868183    -2.9882303759
    9      H       0.7768675591     0.5253606401    -3.5351646078
   10      C      -0.1685037530     0.5546837903    -1.6036515604
   11      H       0.7577663659     0.3618345542    -1.0688315752
   12      S      -1.3773623031     0.5383260296     0.8834961068
   13      O      -1.2077831188    -0.9236342012     1.1427914631
   14      O      -0.1890692040     1.3383022733     1.3278144815
   15      N      -2.7491254716     1.0009428730     1.4690350808
   16      H      -2.8053237724     2.0194395862     1.3869293798
   17      H      -2.2028919326     0.8676667880    -5.5413979545
   18      H      -0.5491921142     0.5753172447    -5.5440622677
 ----------------------------------------------------------------

    8    -890.7357658711      8.25e-06  Convergence criterion met
 Total energy in the final basis set =     -890.7357658711
    5    -890.7195713102      8.59e-06  Convergence criterion met
 Total energy in the final basis set =     -890.8568327471

                    Orbital Energies (a.u.)
 --------------------------------------------------------------

 Alpha MOs
 -- Occupied --
-90.1346 -19.6232 -19.6224 -14.7799 -14.7294 -10.6132 -10.5782 -10.5763
-10.5751 -10.5671 -10.5659  -8.4478  -6.3702  -6.3695  -6.3690  -1.2086
 -1.0922  -1.0446  -0.9772  -0.9587  -0.8631  -0.8468  -0.7313  -0.7172
 -0.6690  -0.6190  -0.5954  -0.5851  -0.5562  -0.5312  -0.5258  -0.5109
 -0.5021  -0.4812  -0.4690  -0.4231  -0.4192  -0.4112  -0.3946  -0.3717
 -0.3597  -0.3372  -0.3259  -0.3104  -0.2727

          Ground-State Mulliken Net Atomic Charges

     Atom                 Charge (a.u.)
  ----------------------------------------
      1 C                    -3.694987
      2 C                    -1.602824
      3 H                     0.260656
      4 C                     2.197691
      5 H                     0.276382
      6 C                     2.281300
      7 N                    -0.693753
      8 C                     1.958370
      9 H                     0.279360
     10 C                    -1.684592
     11 H                     0.237225
     12 S                     0.614488
     13 O                    -0.845398
     14 O                    -0.766947
     15 N                    -1.118145
     16 H                     0.416261
     17 H                     0.443015
     18 H                     0.441896
  ----------------------------------------
  Sum of atomic charges =    -1.000000

                    Cartesian Multipole Moments
 -----------------------------------------------------------------
    Charge (ESU x 10^10)
                -4.8032
    Dipole Moment (Debye)
         X       6.1237      Y      -1.2974      Z     -11.8112
       Tot      13.3674
    Quadrupole Moments (Debye-Ang)
        XX     -85.8603     XY      -3.6711     YY     -86.3987
        XZ      17.4889     YZ       0.6572     ZZ     -65.6429

 Total job time:  11.48s(wall), 144.19s(cpu)
        *  Thank you very much for using Q-Chem.  Have a nice day.  *
