 Q-Chem 5.4 (devel), Q-Chem, Inc., Pleasanton, CA (2021)
 Q-Chem 5.4.1 for Intel X86 EM64T Linux

User input:
--------------------------------------------------------------
$molecule
-1  1
C -1.6368509651  1.2423943362 -1.2415052516
C -2.7768027464  1.3278468486 -2.0888766994
C -2.8438050998  0.6203985792 -3.2620293965
C -1.7697692102 -0.2135955346 -3.6500313613
C -0.6403658273 -0.2890948151 -2.8756608169
C -0.5228970197  0.4471231933 -1.65259251
S  0.7155778629 -1.3320711928 -3.4712233462
O  1.8426800113 -0.3621959166 -3.6597235456
O  0.9584092504 -2.311285134 -2.3728283517
N  0.2895001463 -2.0989616194 -4.7587327194
H  0.3035450546 -1.4451667725 -5.5454156233
C  0.654304426  0.4371107742 -0.8510882143
C  0.7097316644  1.1886337858  0.2942611079
C -0.398631243  1.9527639576  0.7268801544
C -1.5700870688  1.9744961965 -0.0018646438
N -2.7107641671  2.7163662885  0.407703074
C -3.8079340317  1.8510393003  0.863077913
C -2.453752548  3.7324137851  1.4222936485
H -3.5979422381  1.9774062695 -1.8066097766
H -3.7175010577  0.7005501635 -3.9014779842
H -1.8317676792 -0.7895833055 -4.5681347306
H  1.5097073704 -0.1553047642 -1.1512310944
H  1.6138219311  1.18813893  0.8965557789
H -0.3158515681  2.5110928337  1.6526256947
H -4.006483861  1.0533451804  0.1467719278
H -4.7152343828  2.4505590945  0.9774410267
H -3.5657325283  1.3911994675  1.8347018551
H -1.6423921295  4.390695617  1.1024759065
H -2.197800238  3.3003620251  2.4027940616
H -3.3602581075  4.3307264284  1.5453579168
$end

$rem
jobtype sp
exchange M062X
basis 6-31+G*
SMX_GAS_PHASE = TRUE
solvent_method sm12
$end

$smx
solvent water
charges mk
$end
--------------------------------------------------------------

             Standard Nuclear Orientation (Angstroms)
    I     Atom           X                Y                Z
 ----------------------------------------------------------------
    1      C      -1.6368509651     1.2423943362    -1.2415052516
    2      C      -2.7768027464     1.3278468486    -2.0888766994
    3      C      -2.8438050998     0.6203985792    -3.2620293965
    4      C      -1.7697692102    -0.2135955346    -3.6500313613
    5      C      -0.6403658273    -0.2890948151    -2.8756608169
    6      C      -0.5228970197     0.4471231933    -1.6525925100
    7      S       0.7155778629    -1.3320711928    -3.4712233462
    8      O       1.8426800113    -0.3621959166    -3.6597235456
    9      O       0.9584092504    -2.3112851340    -2.3728283517
   10      N       0.2895001463    -2.0989616194    -4.7587327194
   11      H       0.3035450546    -1.4451667725    -5.5454156233
   12      C       0.6543044260     0.4371107742    -0.8510882143
   13      C       0.7097316644     1.1886337858     0.2942611079
   14      C      -0.3986312430     1.9527639576     0.7268801544
   15      C      -1.5700870688     1.9744961965    -0.0018646438
   16      N      -2.7107641671     2.7163662885     0.4077030740
   17      C      -3.8079340317     1.8510393003     0.8630779130
   18      C      -2.4537525480     3.7324137851     1.4222936485
   19      H      -3.5979422381     1.9774062695    -1.8066097766
   20      H      -3.7175010577     0.7005501635    -3.9014779842
   21      H      -1.8317676792    -0.7895833055    -4.5681347306
   22      H       1.5097073704    -0.1553047642    -1.1512310944
   23      H       1.6138219311     1.1881389300     0.8965557789
   24      H      -0.3158515681     2.5110928337     1.6526256947
   25      H      -4.0064838610     1.0533451804     0.1467719278
   26      H      -4.7152343828     2.4505590945     0.9774410267
   27      H      -3.5657325283     1.3911994675     1.8347018551
   28      H      -1.6423921295     4.3906956170     1.1024759065
   29      H      -2.1978002380     3.3003620251     2.4027940616
   30      H      -3.3602581075     4.3307264284     1.5453579168
 ----------------------------------------------------------------

    9   -1122.8948680475      2.76e-06  Convergence criterion met
 Total energy in the final basis set =    -1122.8948680475
    5   -1122.8796734583      6.71e-06  Convergence criterion met
 Total energy in the final basis set =    -1123.0051500203

                    Orbital Energies (a.u.)
 --------------------------------------------------------------

 Alpha MOs
 -- Occupied --
-90.1358 -19.6234 -19.6229 -14.7822 -14.7302 -10.6036 -10.5896 -10.5863
-10.5803 -10.5765 -10.5756 -10.5746 -10.5727 -10.5716 -10.5672 -10.5633
-10.5592  -8.4489  -6.3713  -6.3706  -6.3701  -1.2102  -1.0942  -1.0643
 -0.9926  -0.9751  -0.9381  -0.8869  -0.8565  -0.8353  -0.8093  -0.7547
 -0.7413  -0.7141  -0.6932  -0.6554  -0.6090  -0.6004  -0.5894  -0.5740
 -0.5562  -0.5495  -0.5406  -0.5299  -0.5280  -0.5107  -0.4964  -0.4839
 -0.4789  -0.4680  -0.4600  -0.4526  -0.4391  -0.4273  -0.4203  -0.4145
 -0.4092  -0.3981  -0.3858  -0.3580  -0.3539  -0.3354  -0.3140  -0.3131
 -0.3106  -0.2656

          Ground-State Mulliken Net Atomic Charges

     Atom                 Charge (a.u.)
  ----------------------------------------
      1 C                     0.101200
      2 C                     0.429310
      3 C                     1.721162
      4 C                    -1.056671
      5 C                    -2.958262
      6 C                    -1.578102
      7 S                     0.493237
      8 O                    -0.766128
      9 O                    -0.843561
     10 N                    -1.085678
     11 H                     0.414090
     12 C                    -1.813721
     13 C                     0.001018
     14 C                     1.975994
     15 C                     0.956329
     16 N                    -0.102260
     17 C                    -0.075024
     18 C                     0.130841
     19 H                     0.287948
     20 H                     0.279558
     21 H                     0.264275
     22 H                     0.211653
     23 H                     0.266742
     24 H                     0.270776
     25 H                     0.238119
     26 H                     0.261378
     27 H                     0.235193
     28 H                     0.239899
     29 H                     0.243629
     30 H                     0.257058
  ----------------------------------------
  Sum of atomic charges =    -1.000000

                    Cartesian Multipole Moments
 -----------------------------------------------------------------
    Charge (ESU x 10^10)
                -4.8032
    Dipole Moment (Debye)
         X      -7.6809      Y      10.3236      Z      17.9839
       Tot      22.1133
    Quadrupole Moments (Debye-Ang)
        XX    -111.8333     XY       2.4062     YY    -136.1176
        XZ      22.2150     YZ     -26.0078     ZZ    -167.5842

 Total job time:  48.42s(wall), 365.26s(cpu)
        *  Thank you very much for using Q-Chem.  Have a nice day.  *
