 Q-Chem 5.4 (devel), Q-Chem, Inc., Pleasanton, CA (2021)
 Q-Chem 5.4.1 for Intel X86 EM64T Linux

User input:
--------------------------------------------------------------
$molecule
-1  1
C -1.373922  0.685292 -0.829232
C -2.554144  0.827154 -1.551511
H -3.511274  0.822565 -1.039057
C -2.49658  0.981707 -2.938007
H -3.419182  1.097484 -3.501531
C -1.273436  0.99206 -3.613364
C -1.20678  1.168452 -5.107373
C -0.096904  0.842354 -2.864707
H  0.864163  0.848714 -3.374046
C -0.139917  0.688524 -1.483245
H  0.781392  0.57641 -0.917381
S -1.422621  0.395016  0.945041
O -0.316843  1.25398  1.474878
O -2.778092  0.833054  1.377239
N -1.262614 -1.133124  1.244891
H -0.293856 -1.391503  1.036649
H -0.62306  0.366134 -5.570398
H -2.206635  1.167795 -5.549391
H -0.720286  2.115673 -5.365255
$end

$rem
jobtype sp
exchange M062X
basis 6-31+G*
SMX_GAS_PHASE = TRUE
solvent_method sm12
$end

$smx
solvent water
charges mk
$end
--------------------------------------------------------------

             Standard Nuclear Orientation (Angstroms)
    I     Atom           X                Y                Z
 ----------------------------------------------------------------
    1      C      -1.3739220000     0.6852920000    -0.8292320000
    2      C      -2.5541440000     0.8271540000    -1.5515110000
    3      H      -3.5112740000     0.8225650000    -1.0390570000
    4      C      -2.4965800000     0.9817070000    -2.9380070000
    5      H      -3.4191820000     1.0974840000    -3.5015310000
    6      C      -1.2734360000     0.9920600000    -3.6133640000
    7      C      -1.2067800000     1.1684520000    -5.1073730000
    8      C      -0.0969040000     0.8423540000    -2.8647070000
    9      H       0.8641630000     0.8487140000    -3.3740460000
   10      C      -0.1399170000     0.6885240000    -1.4832450000
   11      H       0.7813920000     0.5764100000    -0.9173810000
   12      S      -1.4226210000     0.3950160000     0.9450410000
   13      O      -0.3168430000     1.2539800000     1.4748780000
   14      O      -2.7780920000     0.8330540000     1.3772390000
   15      N      -1.2626140000    -1.1331240000     1.2448910000
   16      H      -0.2938560000    -1.3915030000     1.0366490000
   17      H      -0.6230600000     0.3661340000    -5.5703980000
   18      H      -2.2066350000     1.1677950000    -5.5493910000
   19      H      -0.7202860000     2.1156730000    -5.3652550000
 ----------------------------------------------------------------

    8    -874.7005625450      8.24e-06  Convergence criterion met
 Total energy in the final basis set =     -874.7005625450
    5    -874.6873245366      7.69e-06  Convergence criterion met
 Total energy in the final basis set =     -874.8114692181

                    Orbital Energies (a.u.)
 --------------------------------------------------------------

 Alpha MOs
 -- Occupied --
-90.1370 -19.6268 -19.6260 -14.7300 -10.5866 -10.5793 -10.5762 -10.5740
-10.5694 -10.5692 -10.5531  -8.4503  -6.3728  -6.3720  -6.3713  -1.2132
 -1.0984  -0.9861  -0.9705  -0.8924  -0.8620  -0.8003  -0.7168  -0.7096
 -0.6641  -0.6139  -0.5661  -0.5548  -0.5421  -0.5228  -0.5224  -0.5048
 -0.4986  -0.4596  -0.4481  -0.4332  -0.4267  -0.4142  -0.3999  -0.3818
 -0.3674  -0.3391  -0.3266  -0.3247  -0.2931

          Ground-State Mulliken Net Atomic Charges

     Atom                 Charge (a.u.)
  ----------------------------------------
      1 C                    -4.272739
      2 C                    -1.739420
      3 H                     0.251127
      4 C                     0.640709
      5 H                     0.271322
      6 C                     1.555755
      7 C                     0.945163
      8 C                     1.581243
      9 H                     0.278875
     10 C                     0.294642
     11 H                     0.251427
     12 S                     0.395800
     13 O                    -0.759284
     14 O                    -0.890472
     15 N                    -0.965503
     16 H                     0.397550
     17 H                     0.256060
     18 H                     0.243932
     19 H                     0.263812
  ----------------------------------------
  Sum of atomic charges =    -1.000000

                    Cartesian Multipole Moments
 -----------------------------------------------------------------
    Charge (ESU x 10^10)
                -4.8032
    Dipole Moment (Debye)
         X       8.6021      Y      -1.5020      Z     -10.6412
       Tot      13.7655
    Quadrupole Moments (Debye-Ang)
        XX     -91.7149     XY      -1.1527     YY     -87.6800
        XZ      15.9630     YZ      -6.4099     ZZ     -78.5201

 Total job time:  11.76s(wall), 153.74s(cpu)
        *  Thank you very much for using Q-Chem.  Have a nice day.  *
