 Q-Chem 5.4 (devel), Q-Chem, Inc., Pleasanton, CA (2021)
 Q-Chem 5.4.1 for Intel X86 EM64T Linux

User input:
--------------------------------------------------------------
$molecule
-1  1
C -1.382798  0.667205 -0.834951
C -2.577321  0.782482 -1.542615
H -3.526286  0.783194 -1.01617
C -2.55129  0.906201 -2.931169
H -3.462395  1.005118 -3.512185
C -1.319278  0.903394 -3.564373
C -0.115779  0.786315 -2.884708
H  0.821559  0.793128 -3.4313
C -0.154954  0.664978 -1.498453
H  0.772521  0.574667 -0.940026
S -1.41135  0.41442  0.947957
O -0.289653  1.272379  1.440971
O -2.757034  0.877102  1.381544
N -1.264611 -1.108067  1.27384
H -0.29936 -1.380835  1.068012
F -1.286799  1.02389 -4.912364
$end

$rem
jobtype sp
exchange M062X
basis 6-31+G*
SMX_GAS_PHASE = TRUE
solvent_method sm12
$end

$smx
solvent water
charges mk
$end
--------------------------------------------------------------

             Standard Nuclear Orientation (Angstroms)
    I     Atom           X                Y                Z
 ----------------------------------------------------------------
    1      C      -1.3827980000     0.6672050000    -0.8349510000
    2      C      -2.5773210000     0.7824820000    -1.5426150000
    3      H      -3.5262860000     0.7831940000    -1.0161700000
    4      C      -2.5512900000     0.9062010000    -2.9311690000
    5      H      -3.4623950000     1.0051180000    -3.5121850000
    6      C      -1.3192780000     0.9033940000    -3.5643730000
    7      C      -0.1157790000     0.7863150000    -2.8847080000
    8      H       0.8215590000     0.7931280000    -3.4313000000
    9      C      -0.1549540000     0.6649780000    -1.4984530000
   10      H       0.7725210000     0.5746670000    -0.9400260000
   11      S      -1.4113500000     0.4144200000     0.9479570000
   12      O      -0.2896530000     1.2723790000     1.4409710000
   13      O      -2.7570340000     0.8771020000     1.3815440000
   14      N      -1.2646110000    -1.1080670000     1.2738400000
   15      H      -0.2993600000    -1.3808350000     1.0680120000
   16      F      -1.2867990000     1.0238900000    -4.9123640000
 ----------------------------------------------------------------

    8    -934.6199128242      8.29e-06  Convergence criterion met
 Total energy in the final basis set =     -934.6199128242
    5    -934.6093929545      5.83e-06  Convergence criterion met
 Total energy in the final basis set =     -934.7250812539

                    Orbital Energies (a.u.)
 --------------------------------------------------------------

 Alpha MOs
 -- Occupied --
-90.1383 -25.2952 -19.6273 -19.6267 -14.7302 -10.6590 -10.5911 -10.5857
-10.5837 -10.5803 -10.5798  -8.4514  -6.3739  -6.3732  -6.3725  -1.3886
 -1.2145  -1.0997  -0.9942  -0.9721  -0.8770  -0.8749  -0.7469  -0.7313
 -0.6800  -0.6461  -0.6064  -0.5943  -0.5822  -0.5621  -0.5405  -0.5308
 -0.5193  -0.4984  -0.4904  -0.4610  -0.4314  -0.4256  -0.4012  -0.3832
 -0.3701  -0.3408  -0.3346  -0.3312  -0.2967

          Ground-State Mulliken Net Atomic Charges

     Atom                 Charge (a.u.)
  ----------------------------------------
      1 C                    -3.136990
      2 C                    -1.516876
      3 H                     0.262731
      4 C                     1.431112
      5 H                     0.306808
      6 C                     1.376932
      7 C                     1.568540
      8 H                     0.309626
      9 C                     0.220105
     10 H                     0.267013
     11 S                     0.469085
     12 O                    -0.764917
     13 O                    -0.886434
     14 N                    -0.969904
     15 H                     0.399109
     16 F                    -0.335940
  ----------------------------------------
  Sum of atomic charges =    -1.000000

                    Cartesian Multipole Moments
 -----------------------------------------------------------------
    Charge (ESU x 10^10)
                -4.8032
    Dipole Moment (Debye)
         X       8.3729      Y      -2.0455      Z      -7.8150
       Tot      11.6346
    Quadrupole Moments (Debye-Ang)
        XX     -86.1287     XY      -0.6248     YY     -85.2043
        XZ      12.8896     YZ      -2.7014     ZZ     -95.5314

 Total job time:  11.04s(wall), 133.78s(cpu)
        *  Thank you very much for using Q-Chem.  Have a nice day.  *
