 Q-Chem 5.4 (devel), Q-Chem, Inc., Pleasanton, CA (2021)
 Q-Chem 5.4.1 for Intel X86 EM64T Linux

User input:
--------------------------------------------------------------
$molecule
-1  1
C -1.47356  0.608144 -0.82458
C -2.597396  0.877873 -1.602456
F -3.806659  1.000332 -1.024863
C -2.539301  1.03771 -2.980977
H -3.453825  1.247354 -3.525541
C -1.310182  0.927506 -3.622194
C -0.152491  0.660485 -2.891946
H  0.820993  0.568789 -3.361426
C -0.26989  0.510968 -1.523638
F  0.848558  0.246927 -0.81218
S -1.439087  0.368098  0.979728
O -0.602108  1.517592  1.42841
O -2.851987  0.445511  1.411397
N -0.868268 -1.042946  1.298646
H  0.142075 -1.02219  1.142911
H -1.251131  1.050639 -4.698512
$end

$rem
jobtype sp
exchange M062X
basis 6-31+G*
SMX_GAS_PHASE = TRUE
solvent_method sm12
$end

$smx
solvent water
charges mk
$end
--------------------------------------------------------------

             Standard Nuclear Orientation (Angstroms)
    I     Atom           X                Y                Z
 ----------------------------------------------------------------
    1      C      -1.4735600000     0.6081440000    -0.8245800000
    2      C      -2.5973960000     0.8778730000    -1.6024560000
    3      F      -3.8066590000     1.0003320000    -1.0248630000
    4      C      -2.5393010000     1.0377100000    -2.9809770000
    5      H      -3.4538250000     1.2473540000    -3.5255410000
    6      C      -1.3101820000     0.9275060000    -3.6221940000
    7      C      -0.1524910000     0.6604850000    -2.8919460000
    8      H       0.8209930000     0.5687890000    -3.3614260000
    9      C      -0.2698900000     0.5109680000    -1.5236380000
   10      F       0.8485580000     0.2469270000    -0.8121800000
   11      S      -1.4390870000     0.3680980000     0.9797280000
   12      O      -0.6021080000     1.5175920000     1.4284100000
   13      O      -2.8519870000     0.4455110000     1.4113970000
   14      N      -0.8682680000    -1.0429460000     1.2986460000
   15      H       0.1420750000    -1.0221900000     1.1429110000
   16      H      -1.2511310000     1.0506390000    -4.6985120000
 ----------------------------------------------------------------

    9   -1033.8191095632      3.71e-06  Convergence criterion met
 Total energy in the final basis set =    -1033.8191095632
    5   -1033.8059653795      6.11e-06  Convergence criterion met
 Total energy in the final basis set =    -1033.9241389732

                    Orbital Energies (a.u.)
 --------------------------------------------------------------

 Alpha MOs
 -- Occupied --
-90.1478 -25.3022 -25.2954 -19.6293 -19.6285 -14.7328 -10.6721 -10.6711
-10.6021 -10.5898 -10.5812 -10.5806  -8.4597  -6.3821  -6.3817  -6.3809
 -1.3969  -1.3920  -1.2205  -1.1043  -1.0029  -0.9786  -0.8892  -0.8766
 -0.7597  -0.7387  -0.7014  -0.6631  -0.6305  -0.6099  -0.5945  -0.5869
 -0.5827  -0.5694  -0.5566  -0.5510  -0.5300  -0.4866  -0.4693  -0.4639
 -0.4541  -0.4302  -0.4049  -0.3855  -0.3729  -0.3448  -0.3388  -0.3236
 -0.3072

          Ground-State Mulliken Net Atomic Charges

     Atom                 Charge (a.u.)
  ----------------------------------------
      1 C                    -3.568573
      2 C                    -0.946982
      3 F                    -0.368763
      4 C                     1.683853
      5 H                     0.303795
      6 C                     1.705471
      7 C                     1.999276
      8 H                     0.310584
      9 C                    -0.387828
     10 F                    -0.382108
     11 S                     0.533969
     12 O                    -0.756753
     13 O                    -0.829911
     14 N                    -1.023186
     15 H                     0.412331
     16 H                     0.314825
  ----------------------------------------
  Sum of atomic charges =    -1.000000

                    Cartesian Multipole Moments
 -----------------------------------------------------------------
    Charge (ESU x 10^10)
                -4.8032
    Dipole Moment (Debye)
         X       8.6859      Y      -1.1812      Z     -10.9537
       Tot      14.0293
    Quadrupole Moments (Debye-Ang)
        XX    -100.2495     XY      -0.1299     YY     -89.3829
        XZ      16.5237     YZ      -6.1456     ZZ     -75.8792

 Total job time:  13.41s(wall), 175.98s(cpu)
        *  Thank you very much for using Q-Chem.  Have a nice day.  *
