 Q-Chem 5.4 (devel), Q-Chem, Inc., Pleasanton, CA (2021)
 Q-Chem 5.4.1 for Intel X86 EM64T Linux

User input:
--------------------------------------------------------------
$molecule
-1  1
C -1.4718447939  0.6103379044 -0.8152415379
C -2.6138909732  0.8403103955 -1.5733508601
F -3.831819138  0.9225691882 -1.0321529868
C -2.5490074405  0.9931167956 -2.9542351273
F -3.6636794336  1.2108173107 -3.6551109999
C -1.3314409805  0.9178355555 -3.6073234255
C -0.1752488255  0.6906276219 -2.8751817571
F  1.0039087834  0.6184035176 -3.4943650348
C -0.2630878653  0.5421485901 -1.5028446904
F  0.8769142541  0.334913442 -0.8305556587
S -1.4193744072  0.4123923173  1.0071976453
O -2.8254256302  0.5669051918  1.4300183942
O -0.8787429701 -0.9664821586  1.1363709004
N -0.546904646  1.5437139664  1.608367208
H  0.4370414455  1.3106831042  1.4551140528
F -1.268374379  1.0634672575 -4.9283521222
$end

$rem
jobtype sp
exchange M062X
basis 6-31+G*
SMX_GAS_PHASE = TRUE
solvent_method sm12
$end

$smx
solvent water
charges mk
$end
--------------------------------------------------------------

             Standard Nuclear Orientation (Angstroms)
    I     Atom           X                Y                Z
 ----------------------------------------------------------------
    1      C      -1.4718447939     0.6103379044    -0.8152415379
    2      C      -2.6138909732     0.8403103955    -1.5733508601
    3      F      -3.8318191380     0.9225691882    -1.0321529868
    4      C      -2.5490074405     0.9931167956    -2.9542351273
    5      F      -3.6636794336     1.2108173107    -3.6551109999
    6      C      -1.3314409805     0.9178355555    -3.6073234255
    7      C      -0.1752488255     0.6906276219    -2.8751817571
    8      F       1.0039087834     0.6184035176    -3.4943650348
    9      C      -0.2630878653     0.5421485901    -1.5028446904
   10      F       0.8769142541     0.3349134420    -0.8305556587
   11      S      -1.4193744072     0.4123923173     1.0071976453
   12      O      -2.8254256302     0.5669051918     1.4300183942
   13      O      -0.8787429701    -0.9664821586     1.1363709004
   14      N      -0.5469046460     1.5437139664     1.6083672080
   15      H       0.4370414455     1.3106831042     1.4551140528
   16      F      -1.2683743790     1.0634672575    -4.9283521222
 ----------------------------------------------------------------

    8   -1331.4303258873      7.51e-06  Convergence criterion met
 Total energy in the final basis set =    -1331.4303258873
    5   -1331.4216800147      5.08e-06  Convergence criterion met
 Total energy in the final basis set =    -1331.5164831903

                    Orbital Energies (a.u.)
 --------------------------------------------------------------

 Alpha MOs
 -- Occupied --
-90.1529 -25.3246 -25.3207 -25.3195 -25.3165 -25.3097 -19.6331 -19.6324
-14.7366 -10.6916 -10.6886 -10.6874 -10.6849 -10.6840 -10.6156  -8.4644
 -6.3868  -6.3866  -6.3856  -1.4312  -1.4218  -1.4153  -1.4066  -1.4025
 -1.2262  -1.1101  -1.0305  -0.9844  -0.9097  -0.9003  -0.7930  -0.7763
 -0.7213  -0.7002  -0.6998  -0.6752  -0.6480  -0.6460  -0.6387  -0.6220
 -0.6126  -0.6027  -0.6013  -0.5847  -0.5814  -0.5684  -0.5606  -0.5574
 -0.5356  -0.5170  -0.5139  -0.4828  -0.4547  -0.4345  -0.4078  -0.3903
 -0.3773  -0.3490  -0.3425  -0.3286  -0.3124

          Ground-State Mulliken Net Atomic Charges

     Atom                 Charge (a.u.)
  ----------------------------------------
      1 C                    -2.798999
      2 C                    -0.498643
      3 F                    -0.355725
      4 C                     1.610721
      5 F                    -0.324188
      6 C                     1.667531
      7 C                     1.779756
      8 F                    -0.317591
      9 C                     0.463382
     10 F                    -0.369126
     11 S                     0.601147
     12 O                    -0.824722
     13 O                    -0.737903
     14 N                    -0.992180
     15 H                     0.416212
     16 F                    -0.319672
  ----------------------------------------
  Sum of atomic charges =    -1.000000

                    Cartesian Multipole Moments
 -----------------------------------------------------------------
    Charge (ESU x 10^10)
                -4.8032
    Dipole Moment (Debye)
         X       8.4231      Y      -1.9986      Z      -6.3414
       Tot      10.7311
    Quadrupole Moments (Debye-Ang)
        XX    -117.6406     XY       6.0866     YY    -100.4048
        XZ      11.1155     YZ      -2.8802     ZZ    -113.0578

 Total job time:  18.75s(wall), 238.55s(cpu)
        *  Thank you very much for using Q-Chem.  Have a nice day.  *
