 Q-Chem 5.4 (devel), Q-Chem, Inc., Pleasanton, CA (2021)
 Q-Chem 5.4.1 for Intel X86 EM64T Linux

User input:
--------------------------------------------------------------
$molecule
-1  1
C -1.3409757269  0.7814505762 -0.9404347824
C -2.5170197109  0.870112074 -1.6947130189
H -3.4867447242  0.8248891032 -1.206663215
C -2.4448323256  1.0207310371 -3.0694749712
H -3.3448524272  1.0932653108 -3.6728450329
C -1.1940287894  1.0843672845 -3.703125534
O -1.2241277974  1.2353031379 -5.0579203532
C -0.019696761  0.9959161106 -2.9541168021
H  0.955001788  1.0446612846 -3.4255366797
C -0.104395115  0.8409803509 -1.5672366216
H  0.8045224879  0.7690674042 -0.9771828355
S -1.4525717515  0.5448984379  0.837645124
O -2.4564048859  1.572804474  1.2633398413
O -1.9500553196 -0.8521282252  1.0104806201
N -0.044723837  0.6725433693  1.4973222825
H  0.2268541962  1.6590577856  1.4876163699
C  0.02428807  1.2972323073 -5.7415861993
H -0.2205505817  1.4131103358 -6.7968978453
H  0.5937373188  0.3741722489 -5.593170975
H  0.6106218924  2.1568325924 -5.4015713719
$end

$rem
jobtype sp
exchange M062X
basis 6-31+G*
SMX_GAS_PHASE = TRUE
solvent_method sm12
$end

$smx
solvent water
charges mk
$end
--------------------------------------------------------------

             Standard Nuclear Orientation (Angstroms)
    I     Atom           X                Y                Z
 ----------------------------------------------------------------
    1      C      -1.3409757269     0.7814505762    -0.9404347824
    2      C      -2.5170197109     0.8701120740    -1.6947130189
    3      H      -3.4867447242     0.8248891032    -1.2066632150
    4      C      -2.4448323256     1.0207310371    -3.0694749712
    5      H      -3.3448524272     1.0932653108    -3.6728450329
    6      C      -1.1940287894     1.0843672845    -3.7031255340
    7      O      -1.2241277974     1.2353031379    -5.0579203532
    8      C      -0.0196967610     0.9959161106    -2.9541168021
    9      H       0.9550017880     1.0446612846    -3.4255366797
   10      C      -0.1043951150     0.8409803509    -1.5672366216
   11      H       0.8045224879     0.7690674042    -0.9771828355
   12      S      -1.4525717515     0.5448984379     0.8376451240
   13      O      -2.4564048859     1.5728044740     1.2633398413
   14      O      -1.9500553196    -0.8521282252     1.0104806201
   15      N      -0.0447238370     0.6725433693     1.4973222825
   16      H       0.2268541962     1.6590577856     1.4876163699
   17      C       0.0242880700     1.2972323073    -5.7415861993
   18      H      -0.2205505817     1.4131103358    -6.7968978453
   19      H       0.5937373188     0.3741722489    -5.5931709750
   20      H       0.6106218924     2.1568325924    -5.4015713719
 ----------------------------------------------------------------

    8    -949.8834256817      8.50e-06  Convergence criterion met
 Total energy in the final basis set =     -949.8834256817
    5    -949.8695632590      6.70e-06  Convergence criterion met
 Total energy in the final basis set =     -949.9983860389

                    Orbital Energies (a.u.)
 --------------------------------------------------------------

 Alpha MOs
 -- Occupied --
-90.1357 -19.6912 -19.6243 -19.6231 -14.7303 -10.6350 -10.6035 -10.5825
-10.5787 -10.5782 -10.5714 -10.5698  -8.4489  -6.3713  -6.3705  -6.3701
 -1.2102  -1.2060  -1.0939  -0.9847  -0.9710  -0.8756  -0.8672  -0.8059
 -0.7290  -0.7111  -0.6682  -0.6286  -0.5957  -0.5768  -0.5571  -0.5537
 -0.5374  -0.5287  -0.5119  -0.4925  -0.4853  -0.4661  -0.4428  -0.4246
 -0.4159  -0.4076  -0.3963  -0.3775  -0.3609  -0.3377  -0.3284  -0.3119
 -0.2925

          Ground-State Mulliken Net Atomic Charges

     Atom                 Charge (a.u.)
  ----------------------------------------
      1 C                    -3.902040
      2 C                    -1.137200
      3 H                     0.242417
      4 C                     0.680648
      5 H                     0.275129
      6 C                     1.912209
      7 O                    -0.422243
      8 C                     4.167920
      9 H                     0.292760
     10 C                    -2.549630
     11 H                     0.269762
     12 S                     0.549781
     13 O                    -0.765649
     14 O                    -0.839080
     15 N                    -1.113380
     16 H                     0.417910
     17 C                     0.160389
     18 H                     0.262798
     19 H                     0.249745
     20 H                     0.247757
  ----------------------------------------
  Sum of atomic charges =    -1.000000

                    Cartesian Multipole Moments
 -----------------------------------------------------------------
    Charge (ESU x 10^10)
                -4.8032
    Dipole Moment (Debye)
         X       9.8362      Y      -0.2206      Z      -9.8784
       Tot      13.9421
    Quadrupole Moments (Debye-Ang)
        XX     -98.9002     XY       6.8234     YY     -90.1103
        XZ       3.9378     YZ      -4.9661     ZZ     -79.0067

 Total job time:  19.49s(wall), 134.20s(cpu)
        *  Thank you very much for using Q-Chem.  Have a nice day.  *
