 Q-Chem 5.4 (devel), Q-Chem, Inc., Pleasanton, CA (2021)
 Q-Chem 5.4.1 for Intel X86 EM64T Linux

User input:
--------------------------------------------------------------
$molecule
0  1
C -1.4801551289  1.3556240981 -1.9031410607
S -1.7753312268  1.5584841146 -0.1887451463
O -0.758123037  2.462522683  0.3392722603
O -3.1918956246  1.8830705978 -0.0699805813
N -1.5437847685  0.1205148648  0.571779295
H -0.5668263445 -0.1787595507  0.5446832185
H -2.1656598334 -0.6104281744  0.2204056431
C -2.3325452261  1.333795501 -2.9626208509
C -1.497161968  1.0826014648 -4.1019221252
C -0.2234608372  0.9676822569 -3.5986760728
O -0.1688146882  1.1297083851 -2.2597324198
C -1.5005044695  0.9312370018 -5.5315061254
C -0.2490447106  0.7116595406 -6.0210266441
S  1.0030697486  0.6896049176 -4.7686791159
H -3.4029929046  1.4830349876 -2.9211754637
H -2.3771232863  0.9814872871 -6.1676324577
C  0.1452054958  0.476573757 -7.4466013047
N  1.1490563074  1.4255114702 -7.9292349169
C  0.6122524274  2.7895910753 -7.9245416846
C  1.6252944891  3.7586933046 -8.5042952781
O  1.9848944807  3.3940093389 -9.8334866528
C  2.5157253086  2.0724328946 -9.858599678
C  1.5154802992  1.0752309068 -9.30486523
H -0.7777941779  0.529005498 -8.0509873612
H  0.5562931501 -0.5326535825 -7.5641379706
H  0.3783944078  3.0896191888 -6.8980656754
H -0.3214974627  2.8378014979 -8.5150807982
H  2.5295667188  3.7828035047 -7.8787372269
H  1.2029289398  4.7645031501 -8.5565735916
H  3.4468051229  2.0448165594 -9.2741114781
H  2.7439092015  1.843578503 -10.901806746
H  1.9545165023  0.0724653346 -9.3167353426
H  0.619856095  1.0649576231 -9.9528434172
$end

$rem
jobtype sp
exchange M062X
basis 6-31+G*
SMX_GAS_PHASE = TRUE
solvent_method sm12
$end

$smx
solvent water
charges mk
$end
--------------------------------------------------------------

             Standard Nuclear Orientation (Angstroms)
    I     Atom           X                Y                Z
 ----------------------------------------------------------------
    1      C      -1.4801551289     1.3556240981    -1.9031410607
    2      S      -1.7753312268     1.5584841146    -0.1887451463
    3      O      -0.7581230370     2.4625226830     0.3392722603
    4      O      -3.1918956246     1.8830705978    -0.0699805813
    5      N      -1.5437847685     0.1205148648     0.5717792950
    6      H      -0.5668263445    -0.1787595507     0.5446832185
    7      H      -2.1656598334    -0.6104281744     0.2204056431
    8      C      -2.3325452261     1.3337955010    -2.9626208509
    9      C      -1.4971619680     1.0826014648    -4.1019221252
   10      C      -0.2234608372     0.9676822569    -3.5986760728
   11      O      -0.1688146882     1.1297083851    -2.2597324198
   12      C      -1.5005044695     0.9312370018    -5.5315061254
   13      C      -0.2490447106     0.7116595406    -6.0210266441
   14      S       1.0030697486     0.6896049176    -4.7686791159
   15      H      -3.4029929046     1.4830349876    -2.9211754637
   16      H      -2.3771232863     0.9814872871    -6.1676324577
   17      C       0.1452054958     0.4765737570    -7.4466013047
   18      N       1.1490563074     1.4255114702    -7.9292349169
   19      C       0.6122524274     2.7895910753    -7.9245416846
   20      C       1.6252944891     3.7586933046    -8.5042952781
   21      O       1.9848944807     3.3940093389    -9.8334866528
   22      C       2.5157253086     2.0724328946    -9.8585996780
   23      C       1.5154802992     1.0752309068    -9.3048652300
   24      H      -0.7777941779     0.5290054980    -8.0509873612
   25      H       0.5562931501    -0.5326535825    -7.5641379706
   26      H       0.3783944078     3.0896191888    -6.8980656754
   27      H      -0.3214974627     2.8378014979    -8.5150807982
   28      H       2.5295667188     3.7828035047    -7.8787372269
   29      H       1.2029289398     4.7645031501    -8.5565735916
   30      H       3.4468051229     2.0448165594    -9.2741114781
   31      H       2.7439092015     1.8435785030   -10.9018067460
   32      H       1.9545165023     0.0724653346    -9.3167353426
   33      H       0.6198560950     1.0649576231    -9.9528434172
 ----------------------------------------------------------------

    8   -1633.8464696016      8.09e-06  Convergence criterion met
 Total energy in the final basis set =    -1633.8464696016
    5   -1633.8409834583      3.12e-06  Convergence criterion met
 Total energy in the final basis set =    -1633.8787561891

                    Orbital Energies (a.u.)
 --------------------------------------------------------------

 Alpha MOs
 -- Occupied --
-90.1887 -89.9738 -19.7563 -19.6672 -19.6647 -19.6562 -14.8119 -14.7714
-10.6549 -10.6526 -10.6044 -10.5982 -10.5978 -10.5968 -10.5953 -10.5809
-10.5777 -10.5775 -10.5753  -8.5014  -8.3213  -6.4237  -6.4233  -6.4228
 -6.2417  -6.2396  -6.2367  -1.2862  -1.2647  -1.1704  -1.1548  -1.0519
 -1.0415  -1.0042  -0.9373  -0.8855  -0.8784  -0.8463  -0.8290  -0.7724
 -0.7493  -0.7421  -0.7048  -0.6765  -0.6669  -0.6553  -0.6230  -0.6148
 -0.6028  -0.5906  -0.5815  -0.5768  -0.5611  -0.5506  -0.5468  -0.5436
 -0.5282  -0.5221  -0.5102  -0.4954  -0.4762  -0.4741  -0.4531  -0.4491
 -0.4439  -0.4403  -0.4299  -0.4262  -0.4209  -0.4147  -0.4115  -0.4094
 -0.3975  -0.3833  -0.3771  -0.3388  -0.3088  -0.3004  -0.2904

          Ground-State Mulliken Net Atomic Charges

     Atom                 Charge (a.u.)
  ----------------------------------------
      1 C                    -1.346155
      2 S                     1.559211
      3 O                    -0.717951
      4 O                    -0.699532
      5 N                    -0.782502
      6 H                     0.511156
      7 H                     0.507981
      8 C                     0.501188
      9 C                     0.562776
     10 C                    -1.100084
     11 O                    -0.247756
     12 C                     0.193806
     13 C                    -0.237520
     14 S                     0.531619
     15 H                     0.325229
     16 H                     0.294497
     17 C                     0.054405
     18 N                    -0.501922
     19 C                     0.007786
     20 C                    -0.652501
     21 O                    -0.526474
     22 C                    -0.698737
     23 C                     0.100003
     24 H                     0.244670
     25 H                     0.258514
     26 H                     0.245063
     27 H                     0.231682
     28 H                     0.215277
     29 H                     0.234509
     30 H                     0.221951
     31 H                     0.237906
     32 H                     0.239678
     33 H                     0.232067
  ----------------------------------------
  Sum of atomic charges =    -0.000160

                    Cartesian Multipole Moments
 -----------------------------------------------------------------
    Charge (ESU x 10^10)
                -0.0008
    Dipole Moment (Debye)
         X       0.0405      Y      -6.3092      Z      -5.4188
       Tot       8.3169
    Quadrupole Moments (Debye-Ang)
        XX    -129.1805     XY       3.4767     YY    -141.7741
        XZ      14.1085     YZ       7.9603     ZZ    -106.6470

 Total job time:  33.41s(wall), 461.19s(cpu)
        *  Thank you very much for using Q-Chem.  Have a nice day.  *
