 Q-Chem 5.4 (devel), Q-Chem, Inc., Pleasanton, CA (2021)
 Q-Chem 5.4.1 for Intel X86 EM64T Linux

User input:
--------------------------------------------------------------
$molecule
0  1
S -1.7369196624  0.3578122535  1.2639247195
O -0.6345629202  0.8353224367  2.1040361713
O -3.0292368894  1.0448011667  1.3471139175
N -2.0147958419 -1.206769225  1.710618126
H -1.165980337 -1.7738080284  1.6704073609
C -1.2008238044  0.3728001455 -0.4282896927
H -0.2809684511 -0.2104260805 -0.5016453018
H -1.0222275826  1.4149301831 -0.7047384183
H -1.9923235633 -0.0606777916 -1.0424503012
H -2.7637919478 -1.6348420598  1.1634794189
$end

$rem
jobtype sp
exchange M062X
basis 6-31+G*
xc_grid 1
SMX_GAS_PHASE = TRUE
solvent_method sm12
$end

$smx
solvent water
charges mk
$end
--------------------------------------------------------------

             Standard Nuclear Orientation (Angstroms)
    I     Atom           X                Y                Z
 ----------------------------------------------------------------
    1      S      -1.7369196624     0.3578122535     1.2639247195
    2      O      -0.6345629202     0.8353224367     2.1040361713
    3      O      -3.0292368894     1.0448011667     1.3471139175
    4      N      -2.0147958419    -1.2067692250     1.7106181260
    5      H      -1.1659803370    -1.7738080284     1.6704073609
    6      C      -1.2008238044     0.3728001455    -0.4282896927
    7      H      -0.2809684511    -0.2104260805    -0.5016453018
    8      H      -1.0222275826     1.4149301831    -0.7047384183
    9      H      -1.9923235633    -0.0606777916    -1.0424503012
   10      H      -2.7637919478    -1.6348420598     1.1634794189
 ----------------------------------------------------------------

    8    -644.2997798092      4.65e-06  Convergence criterion met
 Total energy in the final basis set =     -644.2997798092
    5    -644.2935089523      5.49e-06  Convergence criterion met
 Total energy in the final basis set =     -644.3232682086

                    Orbital Energies (a.u.)
 --------------------------------------------------------------

 Alpha MOs
 -- Occupied --
-90.1733 -19.6532 -19.6531 -14.8033 -10.5876  -8.4831  -6.4050  -6.4045
 -6.4035  -1.2536  -1.1389  -1.0325  -0.8745  -0.7221  -0.6173  -0.6166
 -0.5782  -0.5454  -0.5079  -0.5023  -0.4327  -0.4148  -0.3944  -0.3942
 -0.3785

          Ground-State Mulliken Net Atomic Charges

     Atom                 Charge (a.u.)
  ----------------------------------------
      1 S                     1.025626
      2 O                    -0.802544
      3 O                    -0.802533
      4 N                    -0.852854
      5 H                     0.496752
      6 C                    -0.470084
      7 H                     0.306356
      8 H                     0.297491
      9 H                     0.306035
     10 H                     0.495754
  ----------------------------------------
  Sum of atomic charges =     0.000000

                    Cartesian Multipole Moments
 -----------------------------------------------------------------
    Charge (ESU x 10^10)
                 0.0000
    Dipole Moment (Debye)
         X       1.2442      Y      -4.9633      Z      -5.2947
       Tot       7.3632
    Quadrupole Moments (Debye-Ang)
        XX     -46.2728     XY      10.1366     YY     -35.1039
        XZ       8.4542     YZ      -8.4721     ZZ     -48.9080

 Total job time:  3.78s(wall), 29.18s(cpu)
        *  Thank you very much for using Q-Chem.  Have a nice day.  *
