 Q-Chem 5.4 (devel), Q-Chem, Inc., Pleasanton, CA (2021)
 Q-Chem 5.4.1 for Intel X86 EM64T Linux

User input:
--------------------------------------------------------------
$molecule
0  1
C -1.1728461149  0.7108246997 -0.8229659072
C -2.3621713472  0.4702841866 -1.5260502271
C -3.6474294084  0.0641496 -0.8760167224
C -2.367262768  0.6188918607 -2.911451287
H -3.2832626115  0.4196389669 -3.4595295561
C -1.2161716559  1.0350880204 -3.5799334493
C -0.0473712239  1.2888251304 -2.8685321309
H  0.8518317727  1.607425503 -3.3856681012
C -0.0180692875  1.114679862 -1.4845823865
H  0.8995391987  1.2741207164 -0.9282342791
S -1.0513336288  0.4088489172  0.938530394
O -1.8987410957 -0.7442718086  1.2428951422
O  0.3716285086  0.3569690752  1.2711073217
N -1.6617452873  1.6921335267  1.7708213035
H -2.638445185  1.8648145631  1.523749663
H -1.0937768531  2.5307049123  1.6344161537
O -4.3318908656 -0.8615518584 -1.2611547784
O -3.9787346454  0.8647130446  0.1334441751
C -5.1441638226  0.4873433638  0.8909240574
H -1.2366406455  1.1572604653 -4.6581341097
H -5.2189163383  1.2227165675  1.6897473055
H -5.0047242337 -0.515822191  1.2987869316
H -6.0275444615  0.5211818761  0.2513724873
$end

$rem
jobtype sp
exchange M062X
basis 6-31+G*
xc_grid 1
SMX_GAS_PHASE = TRUE
solvent_method sm12
$end

$smx
solvent water
charges mk
$end
--------------------------------------------------------------

             Standard Nuclear Orientation (Angstroms)
    I     Atom           X                Y                Z
 ----------------------------------------------------------------
    1      C      -1.1728461149     0.7108246997    -0.8229659072
    2      C      -2.3621713472     0.4702841866    -1.5260502271
    3      C      -3.6474294084     0.0641496000    -0.8760167224
    4      C      -2.3672627680     0.6188918607    -2.9114512870
    5      H      -3.2832626115     0.4196389669    -3.4595295561
    6      C      -1.2161716559     1.0350880204    -3.5799334493
    7      C      -0.0473712239     1.2888251304    -2.8685321309
    8      H       0.8518317727     1.6074255030    -3.3856681012
    9      C      -0.0180692875     1.1146798620    -1.4845823865
   10      H       0.8995391987     1.2741207164    -0.9282342791
   11      S      -1.0513336288     0.4088489172     0.9385303940
   12      O      -1.8987410957    -0.7442718086     1.2428951422
   13      O       0.3716285086     0.3569690752     1.2711073217
   14      N      -1.6617452873     1.6921335267     1.7708213035
   15      H      -2.6384451850     1.8648145631     1.5237496630
   16      H      -1.0937768531     2.5307049123     1.6344161537
   17      O      -4.3318908656    -0.8615518584    -1.2611547784
   18      O      -3.9787346454     0.8647130446     0.1334441751
   19      C      -5.1441638226     0.4873433638     0.8909240574
   20      H      -1.2366406455     1.1572604653    -4.6581341097
   21      H      -5.2189163383     1.2227165675     1.6897473055
   22      H      -5.0047242337    -0.5158221910     1.2987869316
   23      H      -6.0275444615     0.5211818761     0.2513724873
 ----------------------------------------------------------------

    9   -1063.7615722604      5.67e-06  Convergence criterion met
 Total energy in the final basis set =    -1063.7615722604
    5   -1063.7561103236      6.05e-06  Convergence criterion met
 Total energy in the final basis set =    -1063.7844325101

                    Orbital Energies (a.u.)
 --------------------------------------------------------------

 Alpha MOs
 -- Occupied --
-90.1842 -19.7195 -19.6634 -19.6622 -19.6603 -14.8080 -10.7167 -10.6190
-10.6092 -10.6074 -10.5916 -10.5888 -10.5847 -10.5838  -8.4930  -6.4151
 -6.4146  -6.4138  -1.2668  -1.2603  -1.1676  -1.1484  -1.0382  -1.0043
 -0.9038  -0.8915  -0.8397  -0.7811  -0.7371  -0.7106  -0.6780  -0.6598
 -0.6249  -0.6154  -0.5989  -0.5865  -0.5818  -0.5671  -0.5544  -0.5356
 -0.5328  -0.5083  -0.4890  -0.4703  -0.4624  -0.4531  -0.4420  -0.4374
 -0.4232  -0.4096  -0.4072  -0.3949  -0.3887  -0.3821  -0.3393  -0.3379

          Ground-State Mulliken Net Atomic Charges

     Atom                 Charge (a.u.)
  ----------------------------------------
      1 C                    -1.481288
      2 C                    -0.227431
      3 C                    -0.291471
      4 C                    -0.139944
      5 H                     0.285546
      6 C                     0.568497
      7 C                     0.734264
      8 H                     0.287699
      9 C                     0.052176
     10 H                     0.297144
     11 S                     1.273332
     12 O                    -0.722712
     13 O                    -0.740275
     14 N                    -0.827949
     15 H                     0.526298
     16 H                     0.510651
     17 O                    -0.595248
     18 O                    -0.328283
     19 C                    -0.253491
     20 H                     0.291202
     21 H                     0.274572
     22 H                     0.249611
     23 H                     0.257101
  ----------------------------------------
  Sum of atomic charges =     0.000000

                    Cartesian Multipole Moments
 -----------------------------------------------------------------
    Charge (ESU x 10^10)
                 0.0000
    Dipole Moment (Debye)
         X      -1.4374      Y       6.7479      Z      -3.6979
       Tot       7.8278
    Quadrupole Moments (Debye-Ang)
        XX     -78.8597     XY     -14.5213     YY     -84.7138
        XZ      -8.8927     YZ      -1.0570     ZZ     -77.9336

 Total job time:  13.39s(wall), 181.58s(cpu)
        *  Thank you very much for using Q-Chem.  Have a nice day.  *
