 Q-Chem 5.4 (devel), Q-Chem, Inc., Pleasanton, CA (2021)
 Q-Chem 5.4.1 for Intel X86 EM64T Linux

User input:
--------------------------------------------------------------
$molecule
0  1
C -1.300351  0.743773 -0.994277
C -2.493368  0.771413 -1.716668
H -3.451487  0.821074 -1.208078
C -2.428356  0.739835 -3.103421
H -3.341048  0.763009 -3.689661
C -1.18897  0.681581 -3.752694
C -1.161141  0.648998 -5.254534
C -0.007491  0.65462 -3.005701
H  0.959498  0.615162 -3.495838
C -0.056606  0.683841 -1.613806
H  0.856486  0.667676 -1.027861
S -1.381208  0.734278  0.785928
O -0.065366  1.110587  1.299751
O -2.560911  1.499668  1.1873
N -1.648492 -0.815396  1.284934
H -0.887862 -1.439878  1.008552
H -2.547074 -1.17237  0.952879
O -2.210393  0.706486 -5.882444
C  0.162733  0.543707 -5.954046
H  0.690764 -0.360501 -5.633336
H  0.793124  1.402443 -5.699439
H  0.001097  0.514034 -7.032101
$end

$rem
jobtype sp
exchange M062X
basis 6-31+G*
SMX_GAS_PHASE = TRUE
solvent_method sm12
$end

$smx
solvent water
charges mk
$end
--------------------------------------------------------------

             Standard Nuclear Orientation (Angstroms)
    I     Atom           X                Y                Z
 ----------------------------------------------------------------
    1      C      -1.3003510000     0.7437730000    -0.9942770000
    2      C      -2.4933680000     0.7714130000    -1.7166680000
    3      H      -3.4514870000     0.8210740000    -1.2080780000
    4      C      -2.4283560000     0.7398350000    -3.1034210000
    5      H      -3.3410480000     0.7630090000    -3.6896610000
    6      C      -1.1889700000     0.6815810000    -3.7526940000
    7      C      -1.1611410000     0.6489980000    -5.2545340000
    8      C      -0.0074910000     0.6546200000    -3.0057010000
    9      H       0.9594980000     0.6151620000    -3.4958380000
   10      C      -0.0566060000     0.6838410000    -1.6138060000
   11      H       0.8564860000     0.6676760000    -1.0278610000
   12      S      -1.3812080000     0.7342780000     0.7859280000
   13      O      -0.0653660000     1.1105870000     1.2997510000
   14      O      -2.5609110000     1.4996680000     1.1873000000
   15      N      -1.6484920000    -0.8153960000     1.2849340000
   16      H      -0.8878620000    -1.4398780000     1.0085520000
   17      H      -2.5470740000    -1.1723700000     0.9528790000
   18      O      -2.2103930000     0.7064860000    -5.8824440000
   19      C       0.1627330000     0.5437070000    -5.9540460000
   20      H       0.6907640000    -0.3605010000    -5.6333360000
   21      H       0.7931240000     1.4024430000    -5.6994390000
   22      H       0.0010970000     0.5140340000    -7.0321010000
 ----------------------------------------------------------------

    9    -988.5460483295      6.36e-06  Convergence criterion met
 Total energy in the final basis set =     -988.5460483295
    5    -988.5399501285      5.75e-06  Convergence criterion met
 Total energy in the final basis set =     -988.5727280432

                    Orbital Energies (a.u.)
 --------------------------------------------------------------

 Alpha MOs
 -- Occupied --
-90.1767 -19.6601 -19.6594 -19.6553 -14.8069 -10.6616 -10.6119 -10.5888
-10.5887 -10.5880 -10.5862 -10.5817 -10.5515  -8.4906  -6.4128  -6.4125
 -6.4115  -1.2607  -1.1831  -1.1471  -1.0363  -0.9993  -0.9068  -0.8778
 -0.8469  -0.7818  -0.7222  -0.7127  -0.6542  -0.6464  -0.6183  -0.5975
 -0.5735  -0.5660  -0.5425  -0.5367  -0.5280  -0.5193  -0.5078  -0.4922
 -0.4737  -0.4547  -0.4405  -0.4370  -0.4314  -0.4219  -0.4059  -0.4022
 -0.3838  -0.3460  -0.3368  -0.3352

          Ground-State Mulliken Net Atomic Charges

     Atom                 Charge (a.u.)
  ----------------------------------------
      1 C                    -1.620738
      2 C                    -0.059921
      3 H                     0.287106
      4 C                    -0.209924
      5 H                     0.277463
      6 C                     0.946546
      7 C                     0.083232
      8 C                     0.552258
      9 H                     0.290958
     10 C                    -0.700676
     11 H                     0.291959
     12 S                     1.272566
     13 O                    -0.751333
     14 O                    -0.725146
     15 N                    -0.816145
     16 H                     0.509905
     17 H                     0.508295
     18 O                    -0.677152
     19 C                    -0.270830
     20 H                     0.275522
     21 H                     0.283319
     22 H                     0.252737
  ----------------------------------------
  Sum of atomic charges =     0.000000

                    Cartesian Multipole Moments
 -----------------------------------------------------------------
    Charge (ESU x 10^10)
                -0.0000
    Dipole Moment (Debye)
         X       2.7794      Y      -4.7926      Z      -3.6965
       Tot       6.6602
    Quadrupole Moments (Debye-Ang)
        XX     -86.0875     XY       9.7998     YY     -86.0939
        XZ     -15.1701     YZ      -6.2961     ZZ     -97.7341

 Total job time:  24.70s(wall), 181.47s(cpu)
        *  Thank you very much for using Q-Chem.  Have a nice day.  *
