 Q-Chem 5.4 (devel), Q-Chem, Inc., Pleasanton, CA (2021)
 Q-Chem 5.4.1 for Intel X86 EM64T Linux

User input:
--------------------------------------------------------------
$molecule
0  1
C -1.4436460058  0.7157784258 -0.9938638396
C -2.6049339193  0.5516044443 -1.7402953439
H -3.5720971367  0.4823550397 -1.2522134378
C -2.5072808755  0.4892569837 -3.1307737665
H -3.4150510537  0.3694001015 -3.7146935017
C -1.2675932468  0.5830207159 -3.7654151991
C -1.1148583423  0.5221753368 -5.2741728848
C -0.1132999211  0.7426707596 -2.9834353188
H  0.8558013247  0.8197829305 -3.4711237557
C -0.1883884565  0.8104783076 -1.5994946415
H  0.7089348493  0.9411991992 -1.0015302398
S -1.5437984153  0.7551554847  0.7764800613
O -0.4627680505  1.6072467753  1.2759371591
O -2.9264670472  1.0555206156  1.1511993281
N -1.2302901105 -0.7584252639  1.3652152823
H -0.2813317187 -1.0610170793  1.1347675197
H -1.9124994357 -1.4407526452  1.0278444818
N -2.3243078759  0.3556999578 -6.0689429735
H -0.612325136  1.4388297675 -5.6001087951
H -0.4308590879 -0.2992195512 -5.5118241109
H -2.970727785  1.1183689609 -5.8700476281
H -2.8022995536 -0.4995552667 -5.7877773954
$end

$rem
jobtype sp
exchange M062X
basis 6-31+G*
SMX_GAS_PHASE = TRUE
solvent_method sm12
$end

$smx
solvent water
charges mk
$end
--------------------------------------------------------------

             Standard Nuclear Orientation (Angstroms)
    I     Atom           X                Y                Z
 ----------------------------------------------------------------
    1      C      -1.4436460058     0.7157784258    -0.9938638396
    2      C      -2.6049339193     0.5516044443    -1.7402953439
    3      H      -3.5720971367     0.4823550397    -1.2522134378
    4      C      -2.5072808755     0.4892569837    -3.1307737665
    5      H      -3.4150510537     0.3694001015    -3.7146935017
    6      C      -1.2675932468     0.5830207159    -3.7654151991
    7      C      -1.1148583423     0.5221753368    -5.2741728848
    8      C      -0.1132999211     0.7426707596    -2.9834353188
    9      H       0.8558013247     0.8197829305    -3.4711237557
   10      C      -0.1883884565     0.8104783076    -1.5994946415
   11      H       0.7089348493     0.9411991992    -1.0015302398
   12      S      -1.5437984153     0.7551554847     0.7764800613
   13      O      -0.4627680505     1.6072467753     1.2759371591
   14      O      -2.9264670472     1.0555206156     1.1511993281
   15      N      -1.2302901105    -0.7584252639     1.3652152823
   16      H      -0.2813317187    -1.0610170793     1.1347675197
   17      H      -1.9124994357    -1.4407526452     1.0278444818
   18      N      -2.3243078759     0.3556999578    -6.0689429735
   19      H      -0.6123251360     1.4388297675    -5.6001087951
   20      H      -0.4308590879    -0.2992195512    -5.5118241109
   21      H      -2.9707277850     1.1183689609    -5.8700476281
   22      H      -2.8022995536    -0.4995552667    -5.7877773954
 ----------------------------------------------------------------

    8    -930.5783895549      7.25e-06  Convergence criterion met
 Total energy in the final basis set =     -930.5783895549
    5    -930.5736116633      4.87e-06  Convergence criterion met
 Total energy in the final basis set =     -930.6085752855

                    Orbital Energies (a.u.)
 --------------------------------------------------------------

 Alpha MOs
 -- Occupied --
-90.1736 -19.6573 -19.6567 -14.8048 -14.7488 -10.6005 -10.5833 -10.5830
-10.5801 -10.5797 -10.5713 -10.5711  -8.4876  -6.4098  -6.4094  -6.4084
 -1.2571  -1.1437  -1.0333  -1.0074  -0.9808  -0.8888  -0.8675  -0.7942
 -0.7400  -0.7123  -0.6804  -0.6440  -0.6156  -0.5966  -0.5767  -0.5604
 -0.5565  -0.5347  -0.5308  -0.5105  -0.4804  -0.4766  -0.4530  -0.4431
 -0.4338  -0.4218  -0.4185  -0.4001  -0.3994  -0.3805  -0.3292  -0.3179
 -0.3173

          Ground-State Mulliken Net Atomic Charges

     Atom                 Charge (a.u.)
  ----------------------------------------
      1 C                    -2.160120
      2 C                    -0.854480
      3 H                     0.277326
      4 C                    -0.075359
      5 H                     0.256554
      6 C                     0.617164
      7 C                     0.516246
      8 C                     0.450560
      9 H                     0.262520
     10 C                     0.239433
     11 H                     0.278115
     12 S                     1.136076
     13 O                    -0.741527
     14 O                    -0.767645
     15 N                    -0.818097
     16 H                     0.504167
     17 H                     0.507153
     18 N                    -1.026789
     19 H                     0.254184
     20 H                     0.247945
     21 H                     0.449655
     22 H                     0.446917
  ----------------------------------------
  Sum of atomic charges =     0.000000

                    Cartesian Multipole Moments
 -----------------------------------------------------------------
    Charge (ESU x 10^10)
                 0.0000
    Dipole Moment (Debye)
         X       1.0776      Y      -4.6808      Z      -5.4260
       Tot       7.2465
    Quadrupole Moments (Debye-Ang)
        XX     -76.7659     XY       6.9119     YY     -81.3839
        XZ       9.9778     YZ      -9.1273     ZZ     -87.0073

 Total job time:  23.02s(wall), 159.09s(cpu)
        *  Thank you very much for using Q-Chem.  Have a nice day.  *
