 Q-Chem 5.4 (devel), Q-Chem, Inc., Pleasanton, CA (2021)
 Q-Chem 5.4.1 for Intel X86 EM64T Linux

User input:
--------------------------------------------------------------
$molecule
0  1
C -1.4446181721  0.5653592064 -0.8582119853
C -2.4584167275  0.0342584948 -1.6503463259
H -3.3027575708 -0.4793806246 -1.2024676369
C -2.3611403603  0.1647097826 -3.0327543029
H -3.1363704584 -0.2489557757 -3.6678587117
C -1.2645266637  0.824977237 -3.5926822066
C -1.1246699482  0.9831031514 -5.0716438524
C -0.2597562666  1.3563734606 -2.7794553421
H  0.5876602654  1.8635881864 -3.2285005536
C -0.3441071397  1.2284544203 -1.3983308691
H  0.4345003996  1.6310161765 -0.7576834961
S -1.5761777224  0.4401742505  0.9150871105
O -2.5320949618 -0.622185895  1.2226526542
O -0.2213978201  0.3760575709  1.4616705446
N -2.2361208574  1.8388901304  1.4883835493
H -3.1780051022  1.9934070803  1.1226321677
H -1.6383963704  2.6468574241  1.3013740356
O -2.1170303735  0.4170437447 -5.7528899811
O -0.1980528939  1.5691381333 -5.6023136664
C -2.0470278218  0.5281506477 -7.1845273653
H -2.929976032  0.0131160283 -7.557405167
H -1.1378920284  0.0469957376 -7.549855953
H -2.0626473737  1.5798174312 -7.4764366465
$end

$rem
jobtype sp
exchange M062X
basis 6-31+G*
xc_grid 1
SMX_GAS_PHASE = TRUE
solvent_method sm12
$end

$smx
solvent water
charges mk
$end
--------------------------------------------------------------

             Standard Nuclear Orientation (Angstroms)
    I     Atom           X                Y                Z
 ----------------------------------------------------------------
    1      C      -1.4446181721     0.5653592064    -0.8582119853
    2      C      -2.4584167275     0.0342584948    -1.6503463259
    3      H      -3.3027575708    -0.4793806246    -1.2024676369
    4      C      -2.3611403603     0.1647097826    -3.0327543029
    5      H      -3.1363704584    -0.2489557757    -3.6678587117
    6      C      -1.2645266637     0.8249772370    -3.5926822066
    7      C      -1.1246699482     0.9831031514    -5.0716438524
    8      C      -0.2597562666     1.3563734606    -2.7794553421
    9      H       0.5876602654     1.8635881864    -3.2285005536
   10      C      -0.3441071397     1.2284544203    -1.3983308691
   11      H       0.4345003996     1.6310161765    -0.7576834961
   12      S      -1.5761777224     0.4401742505     0.9150871105
   13      O      -2.5320949618    -0.6221858950     1.2226526542
   14      O      -0.2213978201     0.3760575709     1.4616705446
   15      N      -2.2361208574     1.8388901304     1.4883835493
   16      H      -3.1780051022     1.9934070803     1.1226321677
   17      H      -1.6383963704     2.6468574241     1.3013740356
   18      O      -2.1170303735     0.4170437447    -5.7528899811
   19      O      -0.1980528939     1.5691381333    -5.6023136664
   20      C      -2.0470278218     0.5281506477    -7.1845273653
   21      H      -2.9299760320     0.0131160283    -7.5574051670
   22      H      -1.1378920284     0.0469957376    -7.5498559530
   23      H      -2.0626473737     1.5798174312    -7.4764366465
 ----------------------------------------------------------------

    9   -1063.7646831462      6.27e-06  Convergence criterion met
 Total energy in the final basis set =    -1063.7646831462
    5   -1063.7599117097      4.95e-06  Convergence criterion met
 Total energy in the final basis set =    -1063.7892167408

                    Orbital Energies (a.u.)
 --------------------------------------------------------------

 Alpha MOs
 -- Occupied --
-90.1807 -19.7093 -19.6604 -19.6597 -19.6547 -14.8080 -10.7067 -10.6139
-10.6035 -10.5966 -10.5912 -10.5907 -10.5875 -10.5860  -8.4898  -6.4118
 -6.4113  -6.4105  -1.2612  -1.2557  -1.1578  -1.1474  -1.0366  -1.0023
 -0.9100  -0.8794  -0.8399  -0.7813  -0.7252  -0.7148  -0.6670  -0.6521
 -0.6279  -0.6185  -0.5928  -0.5833  -0.5814  -0.5535  -0.5441  -0.5321
 -0.5232  -0.5160  -0.4935  -0.4746  -0.4670  -0.4440  -0.4372  -0.4317
 -0.4223  -0.4074  -0.4026  -0.3911  -0.3859  -0.3770  -0.3387  -0.3382

          Ground-State Mulliken Net Atomic Charges

     Atom                 Charge (a.u.)
  ----------------------------------------
      1 C                    -0.733102
      2 C                    -0.126303
      3 H                     0.294535
      4 C                    -0.139643
      5 H                     0.292647
      6 C                     0.143464
      7 C                     0.614378
      8 C                    -0.360860
      9 H                     0.283008
     10 C                    -0.063464
     11 H                     0.293428
     12 S                     1.305697
     13 O                    -0.747107
     14 O                    -0.733096
     15 N                    -0.815053
     16 H                     0.507673
     17 H                     0.507492
     18 O                    -0.329784
     19 O                    -0.681352
     20 C                    -0.264452
     21 H                     0.261994
     22 H                     0.246820
     23 H                     0.243081
  ----------------------------------------
  Sum of atomic charges =     0.000000

                    Cartesian Multipole Moments
 -----------------------------------------------------------------
    Charge (ESU x 10^10)
                -0.0000
    Dipole Moment (Debye)
         X      -3.5043      Y       3.4667      Z      -5.1849
       Tot       7.1542
    Quadrupole Moments (Debye-Ang)
        XX     -78.0788     XY      -9.5873     YY     -82.5182
        XZ      19.5179     YZ      10.4416     ZZ     -78.3990

 Total job time:  12.58s(wall), 160.51s(cpu)
        *  Thank you very much for using Q-Chem.  Have a nice day.  *
