 Q-Chem 5.4 (devel), Q-Chem, Inc., Pleasanton, CA (2021)
 Q-Chem 5.4.1 for Intel X86 EM64T Linux

User input:
--------------------------------------------------------------
$molecule
0  1
C -1.2069992405  0.6054284633 -0.647961242
S -1.7012469062  0.4657881573  1.1343104272
O -2.8778449151  1.306057764  1.2630973064
O -1.7447846548 -0.9605763426  1.3999311878
N -0.494274661  1.1207176819  1.9893861816
H -0.3828727106  2.1301028085  1.8740595115
H  0.3833691283  0.5974612882  1.9665422977
F -2.1583752851  0.084759336 -1.4115877856
F -0.0706962744 -0.051726959 -0.8466692978
F -1.0364904805  1.8836218025 -0.9631745868
$end

$rem
jobtype sp
exchange M062X
basis 6-31+G*
xc_grid 1
SMX_GAS_PHASE = TRUE
solvent_method sm12
$end

$smx
solvent water
charges mk
$end
--------------------------------------------------------------

             Standard Nuclear Orientation (Angstroms)
    I     Atom           X                Y                Z
 ----------------------------------------------------------------
    1      C      -1.2069992405     0.6054284633    -0.6479612420
    2      S      -1.7012469062     0.4657881573     1.1343104272
    3      O      -2.8778449151     1.3060577640     1.2630973064
    4      O      -1.7447846548    -0.9605763426     1.3999311878
    5      N      -0.4942746610     1.1207176819     1.9893861816
    6      H      -0.3828727106     2.1301028085     1.8740595115
    7      H       0.3833691283     0.5974612882     1.9665422977
    8      F      -2.1583752851     0.0847593360    -1.4115877856
    9      F      -0.0706962744    -0.0517269590    -0.8466692978
   10      F      -1.0364904805     1.8836218025    -0.9631745868
 ----------------------------------------------------------------

    8    -941.9369515744      5.33e-06  Convergence criterion met
 Total energy in the final basis set =     -941.9369515744
    5    -941.9331984368      4.79e-06  Convergence criterion met
 Total energy in the final basis set =     -941.9484416849

                    Orbital Energies (a.u.)
 --------------------------------------------------------------

 Alpha MOs
 -- Occupied --
-90.2021 -25.3423 -25.3422 -25.3411 -19.6817 -19.6817 -14.8265 -10.8539
 -8.5115  -6.4335  -6.4330  -6.4324  -1.5126  -1.4191  -1.4189  -1.2853
 -1.1722  -1.0582  -0.8798  -0.7884  -0.7342  -0.7329  -0.7173  -0.6420
 -0.6261  -0.6066  -0.6050  -0.5789  -0.5727  -0.5711  -0.5563  -0.5492
 -0.4592  -0.4449  -0.4233  -0.4185  -0.3982

          Ground-State Mulliken Net Atomic Charges

     Atom                 Charge (a.u.)
  ----------------------------------------
      1 C                     0.814788
      2 S                     1.135207
      3 O                    -0.711073
      4 O                    -0.712426
      5 N                    -0.773176
      6 H                     0.521220
      7 H                     0.521222
      8 F                    -0.312669
      9 F                    -0.241670
     10 F                    -0.241422
  ----------------------------------------
  Sum of atomic charges =     0.000000

                    Cartesian Multipole Moments
 -----------------------------------------------------------------
    Charge (ESU x 10^10)
                 0.0000
    Dipole Moment (Debye)
         X       4.9314      Y       2.4851      Z       0.3005
       Tot       5.5304
    Quadrupole Moments (Debye-Ang)
        XX     -63.9226     XY       2.2916     YY     -50.7165
        XZ       7.9835     YZ       4.5995     ZZ     -51.4419

 Total job time:  5.43s(wall), 43.77s(cpu)
        *  Thank you very much for using Q-Chem.  Have a nice day.  *
