 Q-Chem 5.4 (devel), Q-Chem, Inc., Pleasanton, CA (2021)
 Q-Chem 5.4.1 for Intel X86 EM64T Linux

User input:
--------------------------------------------------------------
$molecule
0  1
C -1.1403866149  0.5439330949 -0.8350817707
C -2.3399236747  0.8957356608 -1.4485648904
H -3.2514089119  1.0063142507 -0.8693541168
C -2.350681346  1.1015004725 -2.8247804839
H -3.2811670958  1.3895950251 -3.304711022
C -1.1716835178  0.963343905 -3.5638934298
C -1.1258070217  1.1953106536 -5.0476504955
C  0.0232707074  0.6236836611 -2.9237632832
H  0.933861455  0.5210473252 -3.5049650226
C  0.0464447309  0.4048362571 -1.5506606595
H  0.9683767756  0.1249093916 -1.050877696
S -1.1141329412  0.3239126352  0.9317388137
O -2.4504723693 -0.0949755672  1.3537204754
O  0.042905416 -0.5047171601  1.2674056179
N -0.8507359134  1.7926859239  1.6373407107
H -1.5995307184  2.4545981085  1.4219253715
H  0.0583254455  2.181170985  1.3773512866
N -2.2446577243  0.9579645257 -5.7414720068
O -0.0810581396  1.587801199 -5.594077766
C -2.2963086133  1.1626754402 -7.1797269893
H -3.3039758052  0.9321142822 -7.5220896945
H -1.5830656415  0.5092478988 -7.6899275956
H -2.0601820121  2.2011279899 -7.4251992711
H -3.0540094693  0.5686750412 -5.273789082
$end

$rem
jobtype sp
exchange M062X
basis 6-31+G*
xc_grid 1
SMX_GAS_PHASE = TRUE
solvent_method sm12
$end

$smx
solvent water
charges mk
$end
--------------------------------------------------------------

             Standard Nuclear Orientation (Angstroms)
    I     Atom           X                Y                Z
 ----------------------------------------------------------------
    1      C      -1.1403866149     0.5439330949    -0.8350817707
    2      C      -2.3399236747     0.8957356608    -1.4485648904
    3      H      -3.2514089119     1.0063142507    -0.8693541168
    4      C      -2.3506813460     1.1015004725    -2.8247804839
    5      H      -3.2811670958     1.3895950251    -3.3047110220
    6      C      -1.1716835178     0.9633439050    -3.5638934298
    7      C      -1.1258070217     1.1953106536    -5.0476504955
    8      C       0.0232707074     0.6236836611    -2.9237632832
    9      H       0.9338614550     0.5210473252    -3.5049650226
   10      C       0.0464447309     0.4048362571    -1.5506606595
   11      H       0.9683767756     0.1249093916    -1.0508776960
   12      S      -1.1141329412     0.3239126352     0.9317388137
   13      O      -2.4504723693    -0.0949755672     1.3537204754
   14      O       0.0429054160    -0.5047171601     1.2674056179
   15      N      -0.8507359134     1.7926859239     1.6373407107
   16      H      -1.5995307184     2.4545981085     1.4219253715
   17      H       0.0583254455     2.1811709850     1.3773512866
   18      N      -2.2446577243     0.9579645257    -5.7414720068
   19      O      -0.0810581396     1.5878011990    -5.5940777660
   20      C      -2.2963086133     1.1626754402    -7.1797269893
   21      H      -3.3039758052     0.9321142822    -7.5220896945
   22      H      -1.5830656415     0.5092478988    -7.6899275956
   23      H      -2.0601820121     2.2011279899    -7.4251992711
   24      H      -3.0540094693     0.5686750412    -5.2737890820
 ----------------------------------------------------------------

    9   -1043.9008817161      5.95e-06  Convergence criterion met
 Total energy in the final basis set =    -1043.9008817161
    5   -1043.8931338797      6.71e-06  Convergence criterion met
 Total energy in the final basis set =    -1043.9367442200

                    Orbital Energies (a.u.)
 --------------------------------------------------------------

 Alpha MOs
 -- Occupied --
-90.1806 -19.6602 -19.6601 -19.6268 -14.8076 -14.8066 -10.6722 -10.6118
-10.5943 -10.5917 -10.5901 -10.5891 -10.5828 -10.5802  -8.4898  -6.4117
 -6.4114  -6.4104  -1.2611  -1.1716  -1.1473  -1.0470  -1.0362  -0.9996
 -0.9031  -0.8784  -0.8204  -0.7752  -0.7247  -0.7114  -0.6798  -0.6527
 -0.6311  -0.6182  -0.5929  -0.5704  -0.5484  -0.5424  -0.5392  -0.5261
 -0.5211  -0.5175  -0.4839  -0.4694  -0.4630  -0.4566  -0.4373  -0.4341
 -0.4223  -0.4069  -0.4025  -0.3849  -0.3569  -0.3408  -0.3348  -0.3281

          Ground-State Mulliken Net Atomic Charges

     Atom                 Charge (a.u.)
  ----------------------------------------
      1 C                    -1.621553
      2 C                     0.357580
      3 H                     0.295671
      4 C                     1.023301
      5 H                     0.289504
      6 C                     0.691584
      7 C                    -0.055620
      8 C                    -1.027368
      9 H                     0.269654
     10 C                    -0.205448
     11 H                     0.288278
     12 S                     1.326083
     13 O                    -0.716990
     14 O                    -0.746970
     15 N                    -0.813632
     16 H                     0.511298
     17 H                     0.510926
     18 N                    -0.348447
     19 O                    -0.866539
     20 C                    -0.375085
     21 H                     0.260528
     22 H                     0.228617
     23 H                     0.227972
     24 H                     0.496657
  ----------------------------------------
  Sum of atomic charges =     0.000000

                    Cartesian Multipole Moments
 -----------------------------------------------------------------
    Charge (ESU x 10^10)
                -0.0000
    Dipole Moment (Debye)
         X      -4.1004      Y       3.7735      Z      -4.4060
       Tot       7.1039
    Quadrupole Moments (Debye-Ang)
        XX     -74.6870     XY     -10.1864     YY     -86.3146
        XZ      34.4186     YZ      12.3824     ZZ     -86.6839

 Total job time:  12.14s(wall), 159.42s(cpu)
        *  Thank you very much for using Q-Chem.  Have a nice day.  *
