 Q-Chem 5.4 (devel), Q-Chem, Inc., Pleasanton, CA (2021)
 Q-Chem 5.4.1 for Intel X86 EM64T Linux

User input:
--------------------------------------------------------------
$molecule
0  1
C -1.2041495618  0.5711494251 -0.943736323
C -2.3259857384  1.1712498152 -1.5129344825
H -3.167795586  1.4704719954 -0.8959850041
C -2.3452549992  1.3692767731 -2.8918028706
H -3.2120683155  1.8291642058 -3.3555849285
C -1.2572729492  0.9741485331 -3.6715423077
H -1.2795551234  1.1298741779 -4.7458822362
C -0.1419849086  0.3780128446 -3.0811671548
H  0.7003523591  0.0689400939 -3.6918208067
C -0.1059537182  0.1724418286 -1.7037282527
H  0.7540996929 -0.2940080634 -1.2330467018
S -1.1445073844  0.3665847062  0.8211832703
O -2.5185605378  0.3070435756  1.3209284019
O -0.2204130226 -0.7270434969  1.1234252696
N -0.4763997565  1.724050179  1.4876114765
H -1.0426578944  2.5534112386  1.2959385926
H  0.4831804441  1.8667021683  1.1649890578
$end

$rem
jobtype sp
exchange M062X
basis 6-31+G*
SMX_GAS_PHASE = TRUE
solvent_method sm12
$end

$smx
solvent water
charges mk
$end
--------------------------------------------------------------

             Standard Nuclear Orientation (Angstroms)
    I     Atom           X                Y                Z
 ----------------------------------------------------------------
    1      C      -1.2041495618     0.5711494251    -0.9437363230
    2      C      -2.3259857384     1.1712498152    -1.5129344825
    3      H      -3.1677955860     1.4704719954    -0.8959850041
    4      C      -2.3452549992     1.3692767731    -2.8918028706
    5      H      -3.2120683155     1.8291642058    -3.3555849285
    6      C      -1.2572729492     0.9741485331    -3.6715423077
    7      H      -1.2795551234     1.1298741779    -4.7458822362
    8      C      -0.1419849086     0.3780128446    -3.0811671548
    9      H       0.7003523591     0.0689400939    -3.6918208067
   10      C      -0.1059537182     0.1724418286    -1.7037282527
   11      H       0.7540996929    -0.2940080634    -1.2330467018
   12      S      -1.1445073844     0.3665847062     0.8211832703
   13      O      -2.5185605378     0.3070435756     1.3209284019
   14      O      -0.2204130226    -0.7270434969     1.1234252696
   15      N      -0.4763997565     1.7240501790     1.4876114765
   16      H      -1.0426578944     2.5534112386     1.2959385926
   17      H       0.4831804441     1.8667021683     1.1649890578
 ----------------------------------------------------------------

    8    -835.9584766108      6.70e-06  Convergence criterion met
 Total energy in the final basis set =     -835.9584766108
    5    -835.9541630324      5.19e-06  Convergence criterion met
 Total energy in the final basis set =     -835.9795034042

                    Orbital Energies (a.u.)
 --------------------------------------------------------------

 Alpha MOs
 -- Occupied --
-90.1747 -19.6582 -19.6581 -14.8056 -10.6053 -10.5849 -10.5849 -10.5773
-10.5761 -10.5759  -8.4888  -6.4110  -6.4106  -6.4096  -1.2585  -1.1450
 -1.0343  -0.9907  -0.8857  -0.8703  -0.7727  -0.7152  -0.6963  -0.6456
 -0.6162  -0.6028  -0.5724  -0.5532  -0.5343  -0.5290  -0.5133  -0.4708
 -0.4518  -0.4346  -0.4286  -0.4201  -0.4053  -0.4006  -0.3809  -0.3311
 -0.3307

          Ground-State Mulliken Net Atomic Charges

     Atom                 Charge (a.u.)
  ----------------------------------------
      1 C                    -1.157140
      2 C                    -0.164471
      3 H                     0.280944
      4 C                     0.158467
      5 H                     0.276733
      6 C                     0.064700
      7 H                     0.273634
      8 C                     0.143442
      9 H                     0.276801
     10 C                    -0.193578
     11 H                     0.280920
     12 S                     1.096282
     13 O                    -0.764155
     14 O                    -0.763538
     15 N                    -0.816055
     16 H                     0.503396
     17 H                     0.503618
  ----------------------------------------
  Sum of atomic charges =     0.000000

                    Cartesian Multipole Moments
 -----------------------------------------------------------------
    Charge (ESU x 10^10)
                 0.0000
    Dipole Moment (Debye)
         X       1.7392      Y       5.0005      Z      -5.8921
       Tot       7.9212
    Quadrupole Moments (Debye-Ang)
        XX     -66.9924     XY      -5.3265     YY     -59.6188
        XZ       8.8471     YZ       0.8691     ZZ     -59.4347

 Total job time:  9.91s(wall), 124.43s(cpu)
        *  Thank you very much for using Q-Chem.  Have a nice day.  *
