 Q-Chem 5.4 (devel), Q-Chem, Inc., Pleasanton, CA (2021)
 Q-Chem 5.4.1 for Intel X86 EM64T Linux

User input:
--------------------------------------------------------------
$molecule
0  1
C -0.679026573  0.8780017482 -1.4326566208
S -1.0772089391  1.323559055  0.2229722232
O -0.5082099513  0.2693810206  1.0512450033
O -0.6859113487  2.7156567164  0.4085086574
N -2.7037710737  1.2684630966  0.4057213339
H -3.0908580148  0.3393978035  0.2275141389
H -3.1861471118  1.9891042145 -0.1351641962
O -1.0386144166  1.7632852664 -2.4029842343
C -0.6694621363  1.2216543155 -3.5810781041
C -0.0920140837  0.0081800766 -3.3576161407
C -0.0926731863 -0.2297651097 -1.946363666
S  0.5587748545 -1.0441203165 -4.6025762317
C  2.3108788776 -0.9071761352 -4.4617119162
O  0.1379368406 -0.4801470635 -5.8922348973
O  0.1690911819 -2.41844201 -4.2599830857
C  2.964035821  0.1331194499 -5.1222495043
C  4.3358681051  0.2600450103 -4.9678474978
C  5.0352096796 -0.6459992176 -4.1619186904
C  4.3787477333 -1.6963592913 -3.4960549538
C  3.0003921576 -1.8064783778 -3.6492530684
O  6.3773058069 -0.5391479565 -3.9839085889
C  5.1452384878 -2.6731126485 -2.6422394458
N  5.7987375254 -3.7369588988 -3.4174414133
C  4.7931293021 -4.6012344007 -4.0312357228
C  6.6067719916 -4.5361358974 -2.4985892229
H -0.8738111276  1.7973061149 -4.4727784589
H  0.284860162 -1.0899208466 -1.409150976
H  2.414231384  0.8315571192 -5.7462582727
H  4.8777739286  1.0585144198 -5.4668858539
H  2.4694895502 -2.6057204429 -3.1370941292
H  6.7209027288  0.2337550269 -4.4642861566
H  4.4520866367 -3.1139199732 -1.9036205092
H  5.9206227744 -2.1384790442 -2.0858104762
H  4.198117971 -4.0456568872 -4.7603001273
H  4.1099675159 -5.0318668682 -3.2771693626
H  5.2911152475 -5.4221731787 -4.5538824708
H  7.3710645372 -3.9095828675 -2.0307753102
H  7.1035831564 -5.3398475931 -3.0483304799
H  5.9916480051 -4.9903014291 -1.7016565717
$end

$rem
jobtype sp
exchange M062X
basis 6-31+G*
SMX_GAS_PHASE = TRUE
solvent_method sm12
$end

$smx
solvent water
charges mk
$end
--------------------------------------------------------------

             Standard Nuclear Orientation (Angstroms)
    I     Atom           X                Y                Z
 ----------------------------------------------------------------
    1      C      -0.6790265730     0.8780017482    -1.4326566208
    2      S      -1.0772089391     1.3235590550     0.2229722232
    3      O      -0.5082099513     0.2693810206     1.0512450033
    4      O      -0.6859113487     2.7156567164     0.4085086574
    5      N      -2.7037710737     1.2684630966     0.4057213339
    6      H      -3.0908580148     0.3393978035     0.2275141389
    7      H      -3.1861471118     1.9891042145    -0.1351641962
    8      O      -1.0386144166     1.7632852664    -2.4029842343
    9      C      -0.6694621363     1.2216543155    -3.5810781041
   10      C      -0.0920140837     0.0081800766    -3.3576161407
   11      C      -0.0926731863    -0.2297651097    -1.9463636660
   12      S       0.5587748545    -1.0441203165    -4.6025762317
   13      C       2.3108788776    -0.9071761352    -4.4617119162
   14      O       0.1379368406    -0.4801470635    -5.8922348973
   15      O       0.1690911819    -2.4184420100    -4.2599830857
   16      C       2.9640358210     0.1331194499    -5.1222495043
   17      C       4.3358681051     0.2600450103    -4.9678474978
   18      C       5.0352096796    -0.6459992176    -4.1619186904
   19      C       4.3787477333    -1.6963592913    -3.4960549538
   20      C       3.0003921576    -1.8064783778    -3.6492530684
   21      O       6.3773058069    -0.5391479565    -3.9839085889
   22      C       5.1452384878    -2.6731126485    -2.6422394458
   23      N       5.7987375254    -3.7369588988    -3.4174414133
   24      C       4.7931293021    -4.6012344007    -4.0312357228
   25      C       6.6067719916    -4.5361358974    -2.4985892229
   26      H      -0.8738111276     1.7973061149    -4.4727784589
   27      H       0.2848601620    -1.0899208466    -1.4091509760
   28      H       2.4142313840     0.8315571192    -5.7462582727
   29      H       4.8777739286     1.0585144198    -5.4668858539
   30      H       2.4694895502    -2.6057204429    -3.1370941292
   31      H       6.7209027288     0.2337550269    -4.4642861566
   32      H       4.4520866367    -3.1139199732    -1.9036205092
   33      H       5.9206227744    -2.1384790442    -2.0858104762
   34      H       4.1981179710    -4.0456568872    -4.7603001273
   35      H       4.1099675159    -5.0318668682    -3.2771693626
   36      H       5.2911152475    -5.4221731787    -4.5538824708
   37      H       7.3710645372    -3.9095828675    -2.0307753102
   38      H       7.1035831564    -5.3398475931    -3.0483304799
   39      H       5.9916480051    -4.9903014291    -1.7016565717
 ----------------------------------------------------------------

    8   -1861.5691785002      9.50e-06  Convergence criterion met
 Total energy in the final basis set =    -1861.5691785002
    5   -1861.5619742781      2.82e-06  Convergence criterion met
 Total energy in the final basis set =    -1861.6135138319

                    Orbital Energies (a.u.)
 --------------------------------------------------------------

 Alpha MOs
 -- Occupied --
-90.1926 -90.1665 -19.7684 -19.6930 -19.6699 -19.6681 -19.6618 -19.6606
-14.8137 -14.7661 -10.6625 -10.6590 -10.6445 -10.6121 -10.6075 -10.6002
-10.5904 -10.5889 -10.5860 -10.5803 -10.5774 -10.5681 -10.5669  -8.5052
 -8.4829  -6.4274  -6.4270  -6.4266  -6.4049  -6.4045  -6.4039  -1.3001
 -1.2702  -1.2509  -1.2056  -1.1584  -1.1444  -1.0444  -1.0437  -0.9940
 -0.9664  -0.9166  -0.8982  -0.8829  -0.8144  -0.8038  -0.7988  -0.7844
 -0.7423  -0.7258  -0.7072  -0.6939  -0.6843  -0.6548  -0.6402  -0.6262
 -0.6174  -0.6115  -0.5927  -0.5899  -0.5815  -0.5766  -0.5559  -0.5538
 -0.5481  -0.5469  -0.5416  -0.5258  -0.5223  -0.5102  -0.5076  -0.5005
 -0.4816  -0.4726  -0.4607  -0.4506  -0.4481  -0.4439  -0.4350  -0.4345
 -0.4309  -0.4270  -0.4240  -0.4185  -0.4128  -0.4120  -0.4052  -0.4001
 -0.3899  -0.3817  -0.3352  -0.3323  -0.3034  -0.2947

          Ground-State Mulliken Net Atomic Charges

     Atom                 Charge (a.u.)
  ----------------------------------------
      1 C                    -0.761952
      2 S                     1.728558
      3 O                    -0.719675
      4 O                    -0.702690
      5 N                    -0.809443
      6 H                     0.513075
      7 H                     0.516670
      8 O                    -0.186606
      9 C                     0.606713
     10 C                    -0.911873
     11 C                     0.845660
     12 S                    -0.445705
     13 C                    -0.533593
     14 O                    -0.595758
     15 O                    -0.550486
     16 C                    -0.065234
     17 C                     0.740456
     18 C                    -0.175247
     19 C                     0.001507
     20 C                    -0.110605
     21 O                    -0.706365
     22 C                    -0.155158
     23 N                    -0.458141
     24 C                    -0.532991
     25 C                    -0.470355
     26 H                     0.349145
     27 H                     0.328697
     28 H                     0.291141
     29 H                     0.292028
     30 H                     0.279433
     31 H                     0.586625
     32 H                     0.222063
     33 H                     0.233522
     34 H                     0.235864
     35 H                     0.218699
     36 H                     0.227961
     37 H                     0.225800
     38 H                     0.228317
     39 H                     0.219934
  ----------------------------------------
  Sum of atomic charges =    -0.000008

                    Cartesian Multipole Moments
 -----------------------------------------------------------------
    Charge (ESU x 10^10)
                -0.0000
    Dipole Moment (Debye)
         X       1.2499      Y       2.1133      Z      -2.2164
       Tot       3.3077
    Quadrupole Moments (Debye-Ang)
        XX    -108.8148     XY      -0.9332     YY    -155.0017
        XZ     -19.5583     YZ     -30.9608     ZZ    -167.7261

 Total job time:  60.33s(wall), 773.26s(cpu)
        *  Thank you very much for using Q-Chem.  Have a nice day.  *
