 Q-Chem 5.4 (devel), Q-Chem, Inc., Pleasanton, CA (2021)
 Q-Chem 5.4.1 for Intel X86 EM64T Linux

User input:
--------------------------------------------------------------
$molecule
0  1
C -1.0665620152  0.6171588435 -1.0022100851
C -2.1848571557  1.1277850731 -1.6755955192
H -3.1223047924  1.283984397 -1.1492610476
C -2.092388947  1.4225836008 -3.0207186076
H -2.9558792439  1.8112296806 -3.5539460525
C -0.8813119408  1.2192894111 -3.7267696687
N -0.8060049157  1.5461695965 -5.0492200049
C  0.2310507762  0.7001760324 -3.028874357
H  1.1679930361  0.5223639948 -3.5450418113
C  0.1374205997  0.4104291029 -1.6748124422
H  0.9994445181  0.0115309378 -1.148412154
S -1.1698394447  0.3037886412  0.7242549033
O -2.5506057462 -0.0694324346  1.0478061842
O -0.0788284309 -0.6006582783  1.0990903852
N -0.8902121435  1.7078748039  1.5647021843
H -1.6007886072  2.4111804896  1.350703491
H  0.0394460496  2.0798733452  1.3591084688
C  0.3110659178  1.1394149625 -5.8807681555
H -1.6889985394  1.7048138623 -5.5188209126
H  0.4730808776  0.0542403727 -5.8511509811
H  1.2326399605  1.6369898719 -5.5644526164
H  0.0983141868  1.435054693 -6.9079352012
$end

$rem
jobtype sp
exchange M062X
basis 6-31+G*
SMX_GAS_PHASE = TRUE
solvent_method sm12
$end

$smx
solvent water
charges mk
$end
--------------------------------------------------------------

             Standard Nuclear Orientation (Angstroms)
    I     Atom           X                Y                Z
 ----------------------------------------------------------------
    1      C      -1.0665620152     0.6171588435    -1.0022100851
    2      C      -2.1848571557     1.1277850731    -1.6755955192
    3      H      -3.1223047924     1.2839843970    -1.1492610476
    4      C      -2.0923889470     1.4225836008    -3.0207186076
    5      H      -2.9558792439     1.8112296806    -3.5539460525
    6      C      -0.8813119408     1.2192894111    -3.7267696687
    7      N      -0.8060049157     1.5461695965    -5.0492200049
    8      C       0.2310507762     0.7001760324    -3.0288743570
    9      H       1.1679930361     0.5223639948    -3.5450418113
   10      C       0.1374205997     0.4104291029    -1.6748124422
   11      H       0.9994445181     0.0115309378    -1.1484121540
   12      S      -1.1698394447     0.3037886412     0.7242549033
   13      O      -2.5506057462    -0.0694324346     1.0478061842
   14      O      -0.0788284309    -0.6006582783     1.0990903852
   15      N      -0.8902121435     1.7078748039     1.5647021843
   16      H      -1.6007886072     2.4111804896     1.3507034910
   17      H       0.0394460496     2.0798733452     1.3591084688
   18      C       0.3110659178     1.1394149625    -5.8807681555
   19      H      -1.6889985394     1.7048138623    -5.5188209126
   20      H       0.4730808776     0.0542403727    -5.8511509811
   21      H       1.2326399605     1.6369898719    -5.5644526164
   22      H       0.0983141868     1.4350546930    -6.9079352012
 ----------------------------------------------------------------

    8    -930.5838723475      7.94e-06  Convergence criterion met
 Total energy in the final basis set =     -930.5838723475
    5    -930.5778911641      6.12e-06  Convergence criterion met
 Total energy in the final basis set =     -930.6125133780

                    Orbital Energies (a.u.)
 --------------------------------------------------------------

 Alpha MOs
 -- Occupied --
-90.1708 -19.6545 -19.6538 -14.8020 -14.7883 -10.6172 -10.5893 -10.5825
-10.5825 -10.5768 -10.5676 -10.5651  -8.4847  -6.4069  -6.4066  -6.4054
 -1.2534  -1.1400  -1.0633  -1.0294  -0.9742  -0.8737  -0.8673  -0.7981
 -0.7516  -0.7150  -0.6858  -0.6424  -0.6194  -0.6116  -0.5887  -0.5677
 -0.5367  -0.5348  -0.5220  -0.5117  -0.5033  -0.4831  -0.4657  -0.4538
 -0.4311  -0.4205  -0.4159  -0.4098  -0.3969  -0.3837  -0.3697  -0.3303
 -0.2655

          Ground-State Mulliken Net Atomic Charges

     Atom                 Charge (a.u.)
  ----------------------------------------
      1 C                    -1.906341
      2 C                    -0.365783
      3 H                     0.274505
      4 C                     0.043335
      5 H                     0.265337
      6 C                     1.211251
      7 N                    -0.523650
      8 C                     1.610538
      9 H                     0.259962
     10 C                    -1.843381
     11 H                     0.271179
     12 S                     1.104710
     13 O                    -0.758516
     14 O                    -0.773723
     15 N                    -0.822080
     16 H                     0.501268
     17 H                     0.503830
     18 C                    -0.231990
     19 H                     0.468427
     20 H                     0.230204
     21 H                     0.228896
     22 H                     0.252025
  ----------------------------------------
  Sum of atomic charges =     0.000000

                    Cartesian Multipole Moments
 -----------------------------------------------------------------
    Charge (ESU x 10^10)
                 0.0000
    Dipole Moment (Debye)
         X       1.3538      Y       5.8687      Z      -9.3003
       Tot      11.0802
    Quadrupole Moments (Debye-Ang)
        XX     -78.5830     XY      -7.7199     YY     -73.1395
        XZ       9.7816     YZ      -3.7026     ZZ     -43.3980

 Total job time:  25.02s(wall), 145.60s(cpu)
        *  Thank you very much for using Q-Chem.  Have a nice day.  *
