 Q-Chem 5.4 (devel), Q-Chem, Inc., Pleasanton, CA (2021)
 Q-Chem 5.4.1 for Intel X86 EM64T Linux

User input:
--------------------------------------------------------------
$molecule
0  1
C -1.4735701368  0.5717169889 -0.9135076183
C -2.5736721445  0.2740072665 -1.7145008455
H -3.4914125955 -0.111443358 -1.2814467163
C -2.4793304535  0.4692386434 -3.0888041247
H -3.3194701269  0.2393736105 -3.735324935
C -1.2883981502  0.9588715841 -3.619575349
Cl -1.1689424077  1.2008290691 -5.3423472929
C -0.189001501  1.2593131909 -2.819039691
H  0.7284822507  1.6357710333 -3.2585454127
C -0.2836485149  1.0639318537 -1.4447890772
H  0.5634988219  1.2873082137 -0.8038334725
S -1.6117587933  0.3710916587  0.8477593085
O -2.6411889425 -0.6345868875  1.1075705699
O -0.2652791963  0.1855203381  1.3873783848
N -2.1747834476  1.7809974788  1.4966800663
H -3.1076819384  2.011851894  1.1480988125
H -1.5292077235  2.5567354218  1.3336573931
$end

$rem
jobtype sp
exchange M062X
basis 6-31+G*
SMX_GAS_PHASE = TRUE
solvent_method sm12
$end

$smx
solvent water
charges mk
$end
--------------------------------------------------------------

             Standard Nuclear Orientation (Angstroms)
    I     Atom           X                Y                Z
 ----------------------------------------------------------------
    1      C      -1.4735701368     0.5717169889    -0.9135076183
    2      C      -2.5736721445     0.2740072665    -1.7145008455
    3      H      -3.4914125955    -0.1114433580    -1.2814467163
    4      C      -2.4793304535     0.4692386434    -3.0888041247
    5      H      -3.3194701269     0.2393736105    -3.7353249350
    6      C      -1.2883981502     0.9588715841    -3.6195753490
    7      Cl     -1.1689424077     1.2008290691    -5.3423472929
    8      C      -0.1890015010     1.2593131909    -2.8190396910
    9      H       0.7284822507     1.6357710333    -3.2585454127
   10      C      -0.2836485149     1.0639318537    -1.4447890772
   11      H       0.5634988219     1.2873082137    -0.8038334725
   12      S      -1.6117587933     0.3710916587     0.8477593085
   13      O      -2.6411889425    -0.6345868875     1.1075705699
   14      O      -0.2652791963     0.1855203381     1.3873783848
   15      N      -2.1747834476     1.7809974788     1.4966800663
   16      H      -3.1076819384     2.0118518940     1.1480988125
   17      H      -1.5292077235     2.5567354218     1.3336573931
 ----------------------------------------------------------------

    8   -1295.5223714617      7.20e-06  Convergence criterion met
 Total energy in the final basis set =    -1295.5223714617
    5   -1295.5183144308      4.47e-06  Convergence criterion met
 Total energy in the final basis set =    -1295.5427418220

                    Orbital Energies (a.u.)
 --------------------------------------------------------------

 Alpha MOs
 -- Occupied --
******** -90.1767 -19.6594 -19.6594 -14.8065 -10.6415 -10.6093 -10.5932
-10.5931 -10.5876 -10.5876  -9.8335  -8.4906  -7.5576  -7.5513  -7.5511
 -6.4128  -6.4125  -6.4115  -1.2603  -1.1468  -1.0360  -1.0210  -0.9660
 -0.8824  -0.8704  -0.7662  -0.7309  -0.6961  -0.6511  -0.6181  -0.6010
 -0.5702  -0.5679  -0.5438  -0.5355  -0.5235  -0.4933  -0.4688  -0.4467
 -0.4366  -0.4344  -0.4221  -0.4032  -0.3982  -0.3931  -0.3833  -0.3401
 -0.3220

          Ground-State Mulliken Net Atomic Charges

     Atom                 Charge (a.u.)
  ----------------------------------------
      1 C                    -1.465903
      2 C                     0.207438
      3 H                     0.293124
      4 C                    -0.057639
      5 H                     0.288249
      6 C                    -0.006718
      7 Cl                    0.157323
      8 C                    -0.038882
      9 H                     0.288168
     10 C                     0.206822
     11 H                     0.293256
     12 S                     1.143680
     13 O                    -0.750772
     14 O                    -0.750843
     15 N                    -0.820060
     16 H                     0.506253
     17 H                     0.506504
  ----------------------------------------
  Sum of atomic charges =     0.000000

                    Cartesian Multipole Moments
 -----------------------------------------------------------------
    Charge (ESU x 10^10)
                -0.0000
    Dipole Moment (Debye)
         X      -1.2427      Y       4.8363      Z      -3.6040
       Tot       6.1582
    Quadrupole Moments (Debye-Ang)
        XX     -69.3223     XY      -7.8722     YY     -71.3202
        XZ       5.0076     YZ       4.6114     ZZ     -86.9716

 Total job time:  11.90s(wall), 149.95s(cpu)
        *  Thank you very much for using Q-Chem.  Have a nice day.  *
