 Q-Chem 5.4 (devel), Q-Chem, Inc., Pleasanton, CA (2021)
 Q-Chem 5.4.1 for Intel X86 EM64T Linux

User input:
--------------------------------------------------------------
$molecule
0  1
C -1.465901  1.160557 -0.596562
S -1.667552  0.686725  1.099911
O -0.363442  0.825204  1.733196
O -2.825167  1.425537  1.590942
N -2.056838 -0.902886  1.155405
H -1.313905 -1.502655  0.789683
H -2.95524 -1.105344  0.711775
S -2.767757  1.883345 -1.459499
C -1.806985  1.936096 -2.88311
C -0.549905  1.422619 -2.660725
C -0.332917  0.96431 -1.339497
C -2.341466  2.493765 -4.148443
S  0.65323  1.350943 -3.962838
O  0.5406  0.049057 -4.635219
O  1.959275  1.721844 -3.404732
H  0.590423  0.535277 -0.963893
C -1.435119  2.445405 -5.356297
C  0.046897  2.63811 -5.04157
O -3.478942  2.926813 -4.195696
H -1.754614  3.224597 -6.052199
H -1.601818  1.47609 -5.844713
H  0.247289  3.58372 -4.529376
H  0.659244  2.576681 -5.946695
$end

$rem
jobtype sp
exchange M062X
basis 6-31+G*
SMX_GAS_PHASE = TRUE
solvent_method sm12
$end

$smx
solvent water
charges mk
$end
--------------------------------------------------------------

             Standard Nuclear Orientation (Angstroms)
    I     Atom           X                Y                Z
 ----------------------------------------------------------------
    1      C      -1.4659010000     1.1605570000    -0.5965620000
    2      S      -1.6675520000     0.6867250000     1.0999110000
    3      O      -0.3634420000     0.8252040000     1.7331960000
    4      O      -2.8251670000     1.4255370000     1.5909420000
    5      N      -2.0568380000    -0.9028860000     1.1554050000
    6      H      -1.3139050000    -1.5026550000     0.7896830000
    7      H      -2.9552400000    -1.1053440000     0.7117750000
    8      S      -2.7677570000     1.8833450000    -1.4594990000
    9      C      -1.8069850000     1.9360960000    -2.8831100000
   10      C      -0.5499050000     1.4226190000    -2.6607250000
   11      C      -0.3329170000     0.9643100000    -1.3394970000
   12      C      -2.3414660000     2.4937650000    -4.1484430000
   13      S       0.6532300000     1.3509430000    -3.9628380000
   14      O       0.5406000000     0.0490570000    -4.6352190000
   15      O       1.9592750000     1.7218440000    -3.4047320000
   16      H       0.5904230000     0.5352770000    -0.9638930000
   17      C      -1.4351190000     2.4454050000    -5.3562970000
   18      C       0.0468970000     2.6381100000    -5.0415700000
   19      O      -3.4789420000     2.9268130000    -4.1956960000
   20      H      -1.7546140000     3.2245970000    -6.0521990000
   21      H      -1.6018180000     1.4760900000    -5.8447130000
   22      H       0.2472890000     3.5837200000    -4.5293760000
   23      H       0.6592440000     2.5766810000    -5.9466950000
 ----------------------------------------------------------------

    9   -1895.8682408975      7.05e-06  Convergence criterion met
 Total energy in the final basis set =    -1895.8682408975
    5   -1895.8601890004      7.31e-06  Convergence criterion met
 Total energy in the final basis set =    -1895.9043293906

                    Orbital Energies (a.u.)
 --------------------------------------------------------------

 Alpha MOs
 -- Occupied --
-90.1933 -90.1644 -90.0066 -19.6750 -19.6703 -19.6696 -19.6645 -19.6636
-14.8149 -10.6864 -10.6461 -10.6383 -10.6306 -10.6145 -10.6085 -10.5874
 -8.5060  -8.4826  -8.3535  -6.4281  -6.4278  -6.4274  -6.4042  -6.4041
 -6.4033  -6.2736  -6.2713  -6.2693  -1.2740  -1.2534  -1.2061  -1.1598
 -1.1450  -1.0518  -1.0430  -0.9595  -0.8959  -0.8935  -0.8357  -0.7965
 -0.7431  -0.7183  -0.6854  -0.6494  -0.6293  -0.6211  -0.6088  -0.5948
 -0.5848  -0.5760  -0.5594  -0.5553  -0.5435  -0.5365  -0.5209  -0.4985
 -0.4926  -0.4878  -0.4656  -0.4515  -0.4479  -0.4345  -0.4319  -0.4269
 -0.4146  -0.4129  -0.4046  -0.3993  -0.3791  -0.3646  -0.3526  -0.3405

          Ground-State Mulliken Net Atomic Charges

     Atom                 Charge (a.u.)
  ----------------------------------------
      1 C                    -1.344550
      2 S                     1.520662
      3 O                    -0.682725
      4 O                    -0.708377
      5 N                    -0.764525
      6 H                     0.513543
      7 H                     0.514682
      8 S                     0.305225
      9 C                     0.222132
     10 C                    -1.139644
     11 C                     0.697242
     12 C                     0.145029
     13 S                     1.001149
     14 O                    -0.616502
     15 O                    -0.671173
     16 H                     0.332051
     17 C                     0.161057
     18 C                    -0.233045
     19 O                    -0.592065
     20 H                     0.320995
     21 H                     0.323740
     22 H                     0.349957
     23 H                     0.345143
  ----------------------------------------
  Sum of atomic charges =     0.000000

                    Cartesian Multipole Moments
 -----------------------------------------------------------------
    Charge (ESU x 10^10)
                 0.0000
    Dipole Moment (Debye)
         X      -1.9479      Y      -1.0433      Z      -5.3005
       Tot       5.7426
    Quadrupole Moments (Debye-Ang)
        XX    -131.4206     XY      11.1907     YY    -105.9366
        XZ       9.9780     YZ     -25.4863     ZZ    -104.8459

 Total job time:  26.37s(wall), 375.64s(cpu)
        *  Thank you very much for using Q-Chem.  Have a nice day.  *
