 Q-Chem 5.4 (devel), Q-Chem, Inc., Pleasanton, CA (2021)
 Q-Chem 5.4.1 for Intel X86 EM64T Linux

User input:
--------------------------------------------------------------
$molecule
0  1
C -1.3904425946  0.6650254386 -0.8633644422
C -2.5313379412  0.7059550854 -1.6909600459
Cl -4.1171909477  0.9371096394 -1.0170929266
C -2.4348659474  0.583165307 -3.0578726857
H -3.3234056064  0.6297604259 -3.679819172
C -1.1750914085  0.3952089147 -3.6705288348
C -0.0481226782  0.3485900169 -2.8278423781
S  1.5389741993  0.0749829534 -3.5292569412
C -0.1463405962  0.4915219402 -1.4512509079
H  0.7461517719  0.4687759577 -0.8324360136
S -1.4557390164  0.8060652788  0.9083010884
O -2.417664213 -0.1647632233  1.4243469365
O -0.0713402727  0.7541737839  1.3715661303
N -2.0238542562  2.2925236862  1.3273925747
H -3.0102754262  2.423685597  1.0994995693
H -1.4494298743  3.0493020185  0.9512575201
N -1.0746896697  0.3101368286 -5.0153281683
C  0.1506982861  0.0053892474 -5.726855107
N  1.2824462736  0.6990431859 -5.0718713878
O  2.5324616743  0.9124052634 -2.8589229795
O  1.8246467157 -1.364876785 -3.5842028219
C  0.000092977  0.3944827128 -7.1863919278
Cl -0.2013954813  2.1619312593 -7.4296332011
H -1.9375943988  0.2788990023 -5.5499815367
H  0.3372151501 -1.0817964485 -5.7359938641
H -0.8928486423 -0.0925795582 -7.5814629132
H  0.8619428639  0.0711853037 -7.7674274774
C  2.5352127497  0.6366141337 -5.8593821183
H  2.4468652284  1.3307561473 -6.6953827656
H  2.7360644107 -0.3749743012 -6.2291960626
H  3.3630536704  0.9711851882 -5.2333611399
$end

$rem
jobtype sp
exchange M062X
basis 6-31+G*
SMX_GAS_PHASE = TRUE
solvent_method sm12
$end

$smx
solvent water
charges mk
$end
--------------------------------------------------------------

             Standard Nuclear Orientation (Angstroms)
    I     Atom           X                Y                Z
 ----------------------------------------------------------------
    1      C      -1.3904425946     0.6650254386    -0.8633644422
    2      C      -2.5313379412     0.7059550854    -1.6909600459
    3      Cl     -4.1171909477     0.9371096394    -1.0170929266
    4      C      -2.4348659474     0.5831653070    -3.0578726857
    5      H      -3.3234056064     0.6297604259    -3.6798191720
    6      C      -1.1750914085     0.3952089147    -3.6705288348
    7      C      -0.0481226782     0.3485900169    -2.8278423781
    8      S       1.5389741993     0.0749829534    -3.5292569412
    9      C      -0.1463405962     0.4915219402    -1.4512509079
   10      H       0.7461517719     0.4687759577    -0.8324360136
   11      S      -1.4557390164     0.8060652788     0.9083010884
   12      O      -2.4176642130    -0.1647632233     1.4243469365
   13      O      -0.0713402727     0.7541737839     1.3715661303
   14      N      -2.0238542562     2.2925236862     1.3273925747
   15      H      -3.0102754262     2.4236855970     1.0994995693
   16      H      -1.4494298743     3.0493020185     0.9512575201
   17      N      -1.0746896697     0.3101368286    -5.0153281683
   18      C       0.1506982861     0.0053892474    -5.7268551070
   19      N       1.2824462736     0.6990431859    -5.0718713878
   20      O       2.5324616743     0.9124052634    -2.8589229795
   21      O       1.8246467157    -1.3648767850    -3.5842028219
   22      C       0.0000929770     0.3944827128    -7.1863919278
   23      Cl     -0.2013954813     2.1619312593    -7.4296332011
   24      H      -1.9375943988     0.2788990023    -5.5499815367
   25      H       0.3372151501    -1.0817964485    -5.7359938641
   26      H      -0.8928486423    -0.0925795582    -7.5814629132
   27      H       0.8619428639     0.0711853037    -7.7674274774
   28      C       2.5352127497     0.6366141337    -5.8593821183
   29      H       2.4468652284     1.3307561473    -6.6953827656
   30      H       2.7360644107    -0.3749743012    -6.2291960626
   31      H       3.3630536704     0.9711851882    -5.2333611399
 ----------------------------------------------------------------

    8   -2530.8998863439      8.33e-06  Convergence criterion met
 Total energy in the final basis set =    -2530.8998863439
    5   -2530.8887303368      5.01e-06  Convergence criterion met
 Total energy in the final basis set =    -2530.9398951766

                    Orbital Energies (a.u.)
 --------------------------------------------------------------

 Alpha MOs
 -- Occupied --
********-102.6641 -90.1831 -90.1799 -19.6667 -19.6643 -19.6620 -19.6599
-14.8250 -14.8215 -14.8098 -10.6643 -10.6635 -10.6573 -10.6284 -10.6164
-10.6147 -10.6132 -10.5954 -10.5929  -9.8480  -9.8145  -8.4962  -8.4952
 -7.5723  -7.5657  -7.5652  -7.5386  -7.5321  -7.5320  -6.4185  -6.4181
 -6.4174  -6.4173  -6.4167  -6.4162  -1.2653  -1.2639  -1.1490  -1.1482
 -1.1265  -1.0607  -1.0413  -1.0283  -0.9836  -0.9657  -0.9074  -0.8954
 -0.8495  -0.8270  -0.7791  -0.7623  -0.7425  -0.7274  -0.6803  -0.6647
 -0.6433  -0.6360  -0.6227  -0.6111  -0.5999  -0.5904  -0.5750  -0.5615
 -0.5510  -0.5457  -0.5423  -0.5380  -0.5262  -0.5179  -0.5087  -0.4957
 -0.4814  -0.4791  -0.4737  -0.4525  -0.4426  -0.4383  -0.4281  -0.4250
 -0.4180  -0.4159  -0.4118  -0.4054  -0.4005  -0.3924  -0.3830  -0.3753
 -0.3726  -0.3511  -0.3379  -0.2929

          Ground-State Mulliken Net Atomic Charges

     Atom                 Charge (a.u.)
  ----------------------------------------
      1 C                    -3.649675
      2 C                     1.425034
      3 Cl                    0.269645
      4 C                     0.004127
      5 H                     0.309865
      6 C                     2.559401
      7 C                    -1.276906
      8 S                     0.955286
      9 C                    -0.541316
     10 H                     0.300434
     11 S                     1.127945
     12 O                    -0.605669
     13 O                    -0.774484
     14 N                    -0.804898
     15 H                     0.495611
     16 H                     0.514601
     17 N                    -0.486277
     18 C                     0.082189
     19 N                    -0.634300
     20 O                    -0.732796
     21 O                    -0.572069
     22 C                     0.171801
     23 Cl                   -0.128195
     24 H                     0.535270
     25 H                     0.312891
     26 H                     0.330501
     27 H                     0.322581
     28 C                    -0.361846
     29 H                     0.295169
     30 H                     0.297424
     31 H                     0.258657
  ----------------------------------------
  Sum of atomic charges =     0.000000

                    Cartesian Multipole Moments
 -----------------------------------------------------------------
    Charge (ESU x 10^10)
                -0.0000
    Dipole Moment (Debye)
         X      -5.1576      Y       2.5355      Z     -12.3771
       Tot      13.6463
    Quadrupole Moments (Debye-Ang)
        XX    -143.0721     XY      -8.0934     YY    -145.6507
        XZ      16.8701     YZ      10.7556     ZZ     -81.4768

 Total job time:  65.25s(wall), 496.04s(cpu)
        *  Thank you very much for using Q-Chem.  Have a nice day.  *
