 Q-Chem 5.4 (devel), Q-Chem, Inc., Pleasanton, CA (2021)
 Q-Chem 5.4.1 for Intel X86 EM64T Linux

User input:
--------------------------------------------------------------
$molecule
0  1
C -1.7924543926  0.4613164673 -1.3749557113
S -2.3199137989  0.4121802311  0.3072939078
O -3.5312098691 -0.4024551003  0.3392308323
O -1.1539949112  0.0504250062  1.1042651673
N -2.7635768213  1.9201943134  0.7806841592
H -3.5765335995  2.2677025131  0.2673205888
H -1.9880147706  2.5845698109  0.7428040184
S -2.9238947545  0.278692735 -2.6710098267
C -1.6845338591  0.5101750164 -3.8258738947
C -0.4755428856  0.7172524126 -3.2204851213
C -0.5159516399  0.690730778 -1.7980988184
S  1.0179426984  0.9295373017 -4.1409267569
C  1.8265608317 -0.6456644494 -4.0522654617
O  1.8408765112  1.9163558795 -3.4295537773
O  0.6354530481  1.1872121731 -5.5357134803
C  2.800198108 -0.8529822508 -3.0801047436
C  3.4005555115 -2.1083059067 -3.003989796
C  3.0300302469 -3.134869593 -3.8765789516
C  2.0386553609 -2.8949424495 -4.837401616
C  1.4281227971 -1.650551727 -4.9343324999
H -1.9033016999  0.4701194264 -4.8870425436
H  0.3385073522  0.8293759143 -1.1431194148
H  3.0885343541 -0.0546509027 -2.4033273263
H  4.1693283705 -2.2901480519 -2.2573600846
H  0.656530314 -1.4649349111 -5.6762399902
C  3.687246286 -4.4910649983 -3.7899429296
N  4.6429368987 -4.7301089162 -4.876742888
H  1.7397388291 -3.692524786 -5.512402496
H  2.9177799747 -5.268049274 -3.8503742201
H  4.1863684201 -4.5907045916 -2.8102299747
C  5.7865132708 -3.8188724719 -4.76650654
C  5.1405556752 -6.1056292931 -4.7728114032
C  6.1810087413 -6.3799567961 -5.8417596238
C  6.8202219018 -4.1310908626 -5.8326554171
O  7.2766052629 -5.4764095646 -5.7301296441
H  6.253391385 -3.906285524 -3.7676212131
H  5.4493575466 -2.7854441643 -4.8931264535
H  4.303586995 -6.8011522838 -4.8916595016
H  5.5912993078 -6.2793754897 -3.7783175216
H  5.7353852283 -6.286121366 -6.8428188206
H  6.5890302056 -7.3865708417 -5.7271948824
H  7.6965158564 -3.4906674125 -5.710985622
H  6.3952867122 -3.968895 -6.833980707
$end

$rem
jobtype sp
exchange M062X
basis 6-31G*
SMX_GAS_PHASE = TRUE
solvent_method sm12
$end

$smx
solvent water
charges mk
$end
--------------------------------------------------------------

             Standard Nuclear Orientation (Angstroms)
    I     Atom           X                Y                Z
 ----------------------------------------------------------------
    1      C      -1.7924543926     0.4613164673    -1.3749557113
    2      S      -2.3199137989     0.4121802311     0.3072939078
    3      O      -3.5312098691    -0.4024551003     0.3392308323
    4      O      -1.1539949112     0.0504250062     1.1042651673
    5      N      -2.7635768213     1.9201943134     0.7806841592
    6      H      -3.5765335995     2.2677025131     0.2673205888
    7      H      -1.9880147706     2.5845698109     0.7428040184
    8      S      -2.9238947545     0.2786927350    -2.6710098267
    9      C      -1.6845338591     0.5101750164    -3.8258738947
   10      C      -0.4755428856     0.7172524126    -3.2204851213
   11      C      -0.5159516399     0.6907307780    -1.7980988184
   12      S       1.0179426984     0.9295373017    -4.1409267569
   13      C       1.8265608317    -0.6456644494    -4.0522654617
   14      O       1.8408765112     1.9163558795    -3.4295537773
   15      O       0.6354530481     1.1872121731    -5.5357134803
   16      C       2.8001981080    -0.8529822508    -3.0801047436
   17      C       3.4005555115    -2.1083059067    -3.0039897960
   18      C       3.0300302469    -3.1348695930    -3.8765789516
   19      C       2.0386553609    -2.8949424495    -4.8374016160
   20      C       1.4281227971    -1.6505517270    -4.9343324999
   21      H      -1.9033016999     0.4701194264    -4.8870425436
   22      H       0.3385073522     0.8293759143    -1.1431194148
   23      H       3.0885343541    -0.0546509027    -2.4033273263
   24      H       4.1693283705    -2.2901480519    -2.2573600846
   25      H       0.6565303140    -1.4649349111    -5.6762399902
   26      C       3.6872462860    -4.4910649983    -3.7899429296
   27      N       4.6429368987    -4.7301089162    -4.8767428880
   28      H       1.7397388291    -3.6925247860    -5.5124024960
   29      H       2.9177799747    -5.2680492740    -3.8503742201
   30      H       4.1863684201    -4.5907045916    -2.8102299747
   31      C       5.7865132708    -3.8188724719    -4.7665065400
   32      C       5.1405556752    -6.1056292931    -4.7728114032
   33      C       6.1810087413    -6.3799567961    -5.8417596238
   34      C       6.8202219018    -4.1310908626    -5.8326554171
   35      O       7.2766052629    -5.4764095646    -5.7301296441
   36      H       6.2533913850    -3.9062855240    -3.7676212131
   37      H       5.4493575466    -2.7854441643    -4.8931264535
   38      H       4.3035869950    -6.8011522838    -4.8916595016
   39      H       5.5912993078    -6.2793754897    -3.7783175216
   40      H       5.7353852283    -6.2861213660    -6.8428188206
   41      H       6.5890302056    -7.3865708417    -5.7271948824
   42      H       7.6965158564    -3.4906674125    -5.7109856220
   43      H       6.3952867122    -3.9688950000    -6.8339807070
 ----------------------------------------------------------------

    8   -2261.8860492757      9.97e-06  Convergence criterion met
 Total energy in the final basis set =    -2261.8860492757
    5   -2261.8806467633      4.00e-06  Convergence criterion met
 Total energy in the final basis set =    -2261.9270335311

                    Orbital Energies (a.u.)
 --------------------------------------------------------------

 Alpha MOs
 -- Occupied --
-90.1789 -90.1529 -89.9897 -19.6544 -19.6530 -19.6494 -19.6493 -19.6426
-14.8009 -14.7591 -10.6270 -10.6216 -10.6079 -10.6019 -10.5967 -10.5910
-10.5907 -10.5791 -10.5785 -10.5784 -10.5764 -10.5692 -10.5688 -10.5678
-10.5673  -8.4920  -8.4705  -8.3385  -6.4143  -6.4138  -6.4135  -6.3924
 -6.3920  -6.3915  -6.2586  -6.2563  -6.2544  -1.2583  -1.2397  -1.1596
 -1.1436  -1.1326  -1.0397  -1.0348  -1.0268  -0.9852  -0.9065  -0.8823
 -0.8735  -0.8708  -0.8631  -0.8243  -0.7856  -0.7624  -0.7411  -0.7300
 -0.7121  -0.6833  -0.6799  -0.6548  -0.6501  -0.6397  -0.6155  -0.6099
 -0.5969  -0.5819  -0.5735  -0.5635  -0.5570  -0.5455  -0.5425  -0.5394
 -0.5368  -0.5276  -0.5204  -0.5094  -0.5077  -0.5036  -0.5012  -0.4938
 -0.4882  -0.4638  -0.4543  -0.4506  -0.4443  -0.4340  -0.4338  -0.4202
 -0.4199  -0.4170  -0.4154  -0.4118  -0.4046  -0.3994  -0.3980  -0.3935
 -0.3869  -0.3749  -0.3675  -0.3477  -0.3313  -0.3300  -0.3228  -0.3153
 -0.2914

          Ground-State Mulliken Net Atomic Charges

     Atom                 Charge (a.u.)
  ----------------------------------------
      1 C                    -0.432681
      2 S                     1.200033
      3 O                    -0.620993
      4 O                    -0.610721
      5 N                    -0.809172
      6 H                     0.435717
      7 H                     0.438400
      8 S                     0.422486
      9 C                    -0.349269
     10 C                    -0.167707
     11 C                    -0.064862
     12 S                     1.126851
     13 C                    -0.208725
     14 O                    -0.632553
     15 O                    -0.631213
     16 C                    -0.173576
     17 C                    -0.193878
     18 C                     0.100090
     19 C                    -0.183542
     20 C                    -0.160606
     21 H                     0.319261
     22 H                     0.277527
     23 H                     0.241373
     24 H                     0.219517
     25 H                     0.238283
     26 C                    -0.193958
     27 N                    -0.473532
     28 H                     0.219800
     29 H                     0.192112
     30 H                     0.152603
     31 C                    -0.156264
     32 C                    -0.148617
     33 C                    -0.070802
     34 C                    -0.070628
     35 O                    -0.565394
     36 H                     0.138505
     37 H                     0.182266
     38 H                     0.187915
     39 H                     0.141724
     40 H                     0.153440
     41 H                     0.188439
     42 H                     0.188963
     43 H                     0.153390
  ----------------------------------------
  Sum of atomic charges =     0.000000

                    Cartesian Multipole Moments
 -----------------------------------------------------------------
    Charge (ESU x 10^10)
                 0.0000
    Dipole Moment (Debye)
         X      -1.5935      Y      -1.0384      Z      -1.5900
       Tot       2.4791
    Quadrupole Moments (Debye-Ang)
        XX    -175.2035     XY     -18.3644     YY    -150.0395
        XZ      25.0916     YZ      24.8261     ZZ    -182.0924

 Total job time:  23.48s(wall), 324.11s(cpu)
        *  Thank you very much for using Q-Chem.  Have a nice day.  *
