 Q-Chem 5.4 (devel), Q-Chem, Inc., Pleasanton, CA (2021)
 Q-Chem 5.4.1 for Intel X86 EM64T Linux

User input:
--------------------------------------------------------------
$molecule
0  1
C  1.0528661154  0.2543911615 -0.2461418
C -1.258214273  0.5960294203 -0.2510571333
N -2.6130062579  0.6823851425 -0.0821654896
S -0.21056221 -0.3125477344  0.7922610895
S  2.7564084251 -0.22002701 -0.0317176108
O  3.5736423069  0.9523187878 -0.3028278997
O  2.8010344217 -0.8851864817  1.2647037105
N  3.1244290425 -1.3378878344 -1.1660722932
H  3.0919874943 -0.9645067795 -2.1172076725
C -3.3083231475  0.0594097433  0.9311287897
O -2.7119635708 -0.6376665847  1.7455795461
C -4.7795399157  0.3277153916  0.9694096117
N  0.682859591  1.0120880266 -1.2240257138
N -0.6571203785  1.2206674869 -1.2363754417
H -3.1154423432  1.2566952864 -0.7570733751
H  2.5728663548 -2.1938475026 -1.075195076
H -4.9479803531  1.2157537364  1.5885547934
H -5.2834904413 -0.5221533865  1.4308663624
H -5.1852068606  0.5156251306 -0.0268643978
$end

$rem
jobtype sp
exchange M062X
basis 6-31+G*
xc_grid 1
SMX_GAS_PHASE = TRUE
solvent_method sm12
$end

$smx
solvent water
charges mk
$end
--------------------------------------------------------------

             Standard Nuclear Orientation (Angstroms)
    I     Atom           X                Y                Z
 ----------------------------------------------------------------
    1      C       1.0528661154     0.2543911615    -0.2461418000
    2      C      -1.2582142730     0.5960294203    -0.2510571333
    3      N      -2.6130062579     0.6823851425    -0.0821654896
    4      S      -0.2105622100    -0.3125477344     0.7922610895
    5      S       2.7564084251    -0.2200270100    -0.0317176108
    6      O       3.5736423069     0.9523187878    -0.3028278997
    7      O       2.8010344217    -0.8851864817     1.2647037105
    8      N       3.1244290425    -1.3378878344    -1.1660722932
    9      H       3.0919874943    -0.9645067795    -2.1172076725
   10      C      -3.3083231475     0.0594097433     0.9311287897
   11      O      -2.7119635708    -0.6376665847     1.7455795461
   12      C      -4.7795399157     0.3277153916     0.9694096117
   13      N       0.6828595910     1.0120880266    -1.2240257138
   14      N      -0.6571203785     1.2206674869    -1.2363754417
   15      H      -3.1154423432     1.2566952864    -0.7570733751
   16      H       2.5728663548    -2.1938475026    -1.0751950760
   17      H      -4.9479803531     1.2157537364     1.5885547934
   18      H      -5.2834904413    -0.5221533865     1.4308663624
   19      H      -5.1852068606     0.5156251306    -0.0268643978
 ----------------------------------------------------------------

    9   -1396.7180497628      6.78e-06  Convergence criterion met
 Total energy in the final basis set =    -1396.7180497628
    5   -1396.7109334803      6.58e-06  Convergence criterion met
 Total energy in the final basis set =    -1396.7504564481

                    Orbital Energies (a.u.)
 --------------------------------------------------------------

 Alpha MOs
 -- Occupied --
-90.1984 -90.0067 -19.6724 -19.6717 -19.6542 -14.8431 -14.8382 -14.8224
-14.8184 -10.6947 -10.6938 -10.6592 -10.5604  -8.5065  -8.3491  -6.4286
 -6.4280  -6.4277  -6.2681  -6.2671  -6.2641  -1.2768  -1.2085  -1.1870
 -1.1616  -1.0908  -1.0484  -0.9616  -0.9395  -0.8593  -0.8067  -0.7468
 -0.7121  -0.6851  -0.6642  -0.6298  -0.6091  -0.5885  -0.5754  -0.5693
 -0.5494  -0.5379  -0.5315  -0.5128  -0.4776  -0.4679  -0.4523  -0.4393
 -0.4354  -0.4281  -0.4136  -0.4057  -0.3908  -0.3805  -0.3771  -0.3616
 -0.3263

          Ground-State Mulliken Net Atomic Charges

     Atom                 Charge (a.u.)
  ----------------------------------------
      1 C                    -0.925422
      2 C                    -0.147864
      3 N                    -0.249264
      4 S                     0.980793
      5 S                     1.233005
      6 O                    -0.704801
      7 O                    -0.710915
      8 N                    -0.778653
      9 H                     0.510713
     10 C                     0.589870
     11 O                    -0.729227
     12 C                    -0.418597
     13 N                    -0.370725
     14 N                    -0.173304
     15 H                     0.543632
     16 H                     0.512718
     17 H                     0.298328
     18 H                     0.263178
     19 H                     0.276533
  ----------------------------------------
  Sum of atomic charges =     0.000000

                    Cartesian Multipole Moments
 -----------------------------------------------------------------
    Charge (ESU x 10^10)
                 0.0000
    Dipole Moment (Debye)
         X      -9.3886      Y      -1.7822      Z      -3.2380
       Tot      10.0899
    Quadrupole Moments (Debye-Ang)
        XX     -78.2444     XY     -16.7253     YY     -89.5999
        XZ      -6.9972     YZ      12.4260     ZZ     -94.4725

 Total job time:  10.04s(wall), 128.51s(cpu)
        *  Thank you very much for using Q-Chem.  Have a nice day.  *
