 Q-Chem 5.4 (devel), Q-Chem, Inc., Pleasanton, CA (2021)
 Q-Chem 5.4.1 for Intel X86 EM64T Linux

User input:
--------------------------------------------------------------
$molecule
0  1
C  1.109243  0.511688 -0.145535
C -1.266613  0.593799  0.226417
S -0.072047 -0.668854  0.340081
S  2.834202  0.053945 -0.281
O  2.877785 -1.376555  0.000545
O  3.332032  0.578213 -1.545114
N  3.654663  0.815306  0.912101
H  3.344836  0.53828  1.846115
N  0.717163  1.713824 -0.372968
C -0.65288  1.800262 -0.169073
C -2.642352  0.517864  0.467238
C -3.385829  1.677591  0.306853
C -2.782125  2.88878 -0.085814
C -1.421344  2.962618 -0.326871
H  3.664032  1.831771  0.801546
H -3.111354 -0.412738  0.769906
H -4.455747  1.649801  0.488491
H -3.396623  3.776094 -0.200698
H -0.943612  3.888852 -0.630662
$end

$rem
jobtype sp
exchange M062X
basis 6-31+G*
SMX_GAS_PHASE = TRUE
solvent_method sm12
$end

$smx
solvent water
charges mk
$end
--------------------------------------------------------------

             Standard Nuclear Orientation (Angstroms)
    I     Atom           X                Y                Z
 ----------------------------------------------------------------
    1      C       1.1092430000     0.5116880000    -0.1455350000
    2      C      -1.2666130000     0.5937990000     0.2264170000
    3      S      -0.0720470000    -0.6688540000     0.3400810000
    4      S       2.8342020000     0.0539450000    -0.2810000000
    5      O       2.8777850000    -1.3765550000     0.0005450000
    6      O       3.3320320000     0.5782130000    -1.5451140000
    7      N       3.6546630000     0.8153060000     0.9121010000
    8      H       3.3448360000     0.5382800000     1.8461150000
    9      N       0.7171630000     1.7138240000    -0.3729680000
   10      C      -0.6528800000     1.8002620000    -0.1690730000
   11      C      -2.6423520000     0.5178640000     0.4672380000
   12      C      -3.3858290000     1.6775910000     0.3068530000
   13      C      -2.7821250000     2.8887800000    -0.0858140000
   14      C      -1.4213440000     2.9626180000    -0.3268710000
   15      H       3.6640320000     1.8317710000     0.8015460000
   16      H      -3.1113540000    -0.4127380000     0.7699060000
   17      H      -4.4557470000     1.6498010000     0.4884910000
   18      H      -3.3966230000     3.7760940000    -0.2006980000
   19      H      -0.9436120000     3.8888520000    -0.6306620000
 ----------------------------------------------------------------

    9   -1326.3378773612      4.92e-06  Convergence criterion met
 Total energy in the final basis set =    -1326.3378773612
    5   -1326.3335889121      5.39e-06  Convergence criterion met
 Total energy in the final basis set =    -1326.3631414080

                    Orbital Energies (a.u.)
 --------------------------------------------------------------

 Alpha MOs
 -- Occupied --
-90.1920 -89.9899 -19.6719 -19.6710 -14.8173 -14.8113 -10.6677 -10.6162
-10.6152 -10.5833 -10.5778 -10.5768 -10.5737  -8.5053  -8.3376  -6.4276
 -6.4271  -6.4266  -6.2577  -6.2557  -6.2531  -1.2749  -1.1602  -1.1191
 -1.0471  -0.9810  -0.9304  -0.8746  -0.8547  -0.7935  -0.7192  -0.7048
 -0.6899  -0.6303  -0.6293  -0.6023  -0.5869  -0.5793  -0.5490  -0.5323
 -0.5279  -0.5252  -0.4836  -0.4498  -0.4498  -0.4460  -0.4347  -0.4250
 -0.4131  -0.4112  -0.4015  -0.3890  -0.3749  -0.3176  -0.3076

          Ground-State Mulliken Net Atomic Charges

     Atom                 Charge (a.u.)
  ----------------------------------------
      1 C                    -1.074459
      2 C                     0.192614
      3 S                     0.647391
      4 S                     1.415025
      5 O                    -0.696363
      6 O                    -0.687630
      7 N                    -0.786691
      8 H                     0.511651
      9 N                    -0.160067
     10 C                    -0.893100
     11 C                     0.606526
     12 C                     0.061812
     13 C                    -0.058423
     14 C                    -0.705737
     15 H                     0.511817
     16 H                     0.296961
     17 H                     0.270999
     18 H                     0.272144
     19 H                     0.275532
  ----------------------------------------
  Sum of atomic charges =     0.000000

                    Cartesian Multipole Moments
 -----------------------------------------------------------------
    Charge (ESU x 10^10)
                 0.0000
    Dipole Moment (Debye)
         X      -5.5648      Y       3.2186      Z       4.7289
       Tot       7.9805
    Quadrupole Moments (Debye-Ang)
        XX     -88.7499     XY       4.8599     YY     -83.9557
        XZ      13.3482     YZ       2.8932     ZZ     -91.6828

 Total job time:  15.28s(wall), 213.52s(cpu)
        *  Thank you very much for using Q-Chem.  Have a nice day.  *
