 Q-Chem 5.4 (devel), Q-Chem, Inc., Pleasanton, CA (2021)
 Q-Chem 5.4.1 for Intel X86 EM64T Linux

User input:
--------------------------------------------------------------
$molecule
0  1
C -1.1332370278  0.5919824052 -0.7229598022
N -1.7488572295  1.5052249534 -1.3842224561
N -1.1497684143  1.6988567764 -2.5723259277
C -0.0550085922  0.9428224419 -2.8477359296
N  0.5914530776  1.0566856858 -3.9730921758
S  0.2560403519 -0.1315218304 -1.4829244966
S -1.6587008615  0.171114553  0.9283419519
O -3.102596092  0.3327401894  0.9771682963
O -1.028641044 -1.1137927787  1.2027219989
N -1.0098065156  1.2577119031  1.9613677248
H -1.3575714046  2.20814805  1.8159398108
C -1.6864043959  2.6866782512 -3.5054818192
H -2.5512871234  3.1425087724 -3.0278597488
H -1.9816485066  2.189620032 -4.430441621
H -0.9256770652  3.4404877228 -3.7120744903
H  0.0114849889  1.2241255025  1.987934508
C  1.6913541484  0.2415142582 -4.14389784
C  2.4079289602  0.4139614501 -5.448588701
O  2.0652862225 -0.5725701148 -3.2907349456
H  2.7533443703  1.4483949899 -5.5422811351
H  1.7167018799  0.2216017041 -6.2750846396
H  3.2568822728 -0.2673859175 -5.5080725622
$end

$rem
jobtype sp
exchange M062X
basis 6-31+G*
xc_grid 1
SMX_GAS_PHASE = TRUE
solvent_method sm12
$end

$smx
solvent water
charges mk
$end
--------------------------------------------------------------

             Standard Nuclear Orientation (Angstroms)
    I     Atom           X                Y                Z
 ----------------------------------------------------------------
    1      C      -1.1332370278     0.5919824052    -0.7229598022
    2      N      -1.7488572295     1.5052249534    -1.3842224561
    3      N      -1.1497684143     1.6988567764    -2.5723259277
    4      C      -0.0550085922     0.9428224419    -2.8477359296
    5      N       0.5914530776     1.0566856858    -3.9730921758
    6      S       0.2560403519    -0.1315218304    -1.4829244966
    7      S      -1.6587008615     0.1711145530     0.9283419519
    8      O      -3.1025960920     0.3327401894     0.9771682963
    9      O      -1.0286410440    -1.1137927787     1.2027219989
   10      N      -1.0098065156     1.2577119031     1.9613677248
   11      H      -1.3575714046     2.2081480500     1.8159398108
   12      C      -1.6864043959     2.6866782512    -3.5054818192
   13      H      -2.5512871234     3.1425087724    -3.0278597488
   14      H      -1.9816485066     2.1896200320    -4.4304416210
   15      H      -0.9256770652     3.4404877228    -3.7120744903
   16      H       0.0114849889     1.2241255025     1.9879345080
   17      C       1.6913541484     0.2415142582    -4.1438978400
   18      C       2.4079289602     0.4139614501    -5.4485887010
   19      O       2.0652862225    -0.5725701148    -3.2907349456
   20      H       2.7533443703     1.4483949899    -5.5422811351
   21      H       1.7167018799     0.2216017041    -6.2750846396
   22      H       3.2568822728    -0.2673859175    -5.5080725622
 ----------------------------------------------------------------

    9   -1436.0072257282      7.05e-06  Convergence criterion met
 Total energy in the final basis set =    -1436.0072257282
    5   -1436.0015300882      6.75e-06  Convergence criterion met
 Total energy in the final basis set =    -1436.0359639665

                    Orbital Energies (a.u.)
 --------------------------------------------------------------

 Alpha MOs
 -- Occupied --
-90.1991 -90.0027 -19.6730 -19.6725 -19.6478 -14.8897 -14.8596 -14.8188
-14.7728 -10.6982 -10.6740 -10.6649 -10.5954 -10.5518  -8.5072  -8.3448
 -6.4293  -6.4287  -6.4284  -6.2647  -6.2626  -6.2590  -1.2780  -1.2272
 -1.1849  -1.1629  -1.0622  -1.0485  -1.0003  -0.9320  -0.8508  -0.8443
 -0.8007  -0.7456  -0.6944  -0.6714  -0.6313  -0.6204  -0.6040  -0.5954
 -0.5837  -0.5760  -0.5489  -0.5337  -0.5330  -0.5008  -0.4965  -0.4760
 -0.4670  -0.4590  -0.4511  -0.4371  -0.4313  -0.4250  -0.4162  -0.4088
 -0.4011  -0.3804  -0.3740  -0.3456  -0.3093

          Ground-State Mulliken Net Atomic Charges

     Atom                 Charge (a.u.)
  ----------------------------------------
      1 C                    -0.856800
      2 N                    -0.151716
      3 N                     0.240291
      4 C                    -0.288616
      5 N                    -0.384316
      6 S                     0.742303
      7 S                     1.436940
      8 O                    -0.685500
      9 O                    -0.720191
     10 N                    -0.777184
     11 H                     0.518929
     12 C                    -0.238562
     13 H                     0.288822
     14 H                     0.288395
     15 H                     0.280996
     16 H                     0.513275
     17 C                     0.384549
     18 C                    -0.709276
     19 O                    -0.673384
     20 H                     0.269819
     21 H                     0.271717
     22 H                     0.249508
  ----------------------------------------
  Sum of atomic charges =     0.000000

                    Cartesian Multipole Moments
 -----------------------------------------------------------------
    Charge (ESU x 10^10)
                 0.0000
    Dipole Moment (Debye)
         X       1.0542      Y       7.4091      Z      -2.6490
       Tot       7.9387
    Quadrupole Moments (Debye-Ang)
        XX    -109.3385     XY      -3.0826     YY     -85.7122
        XZ      12.6967     YZ      -4.7960     ZZ     -81.1863

 Total job time:  12.27s(wall), 162.36s(cpu)
        *  Thank you very much for using Q-Chem.  Have a nice day.  *
