 Q-Chem 5.4 (devel), Q-Chem, Inc., Pleasanton, CA (2021)
 Q-Chem 5.4.1 for Intel X86 EM64T Linux

User input:
--------------------------------------------------------------
$molecule
0  1
C  1.125142765  0.4053176901 -0.2353513417
C -1.1599755486  0.9320337518  0.0390775985
N -2.4742508282  1.0075375865  0.3043866164
S -0.1240090778 -0.2765501542  0.7592001599
S  2.811577113 -0.1495914546 -0.1719525141
O  2.7613466058 -1.4494845586  0.4876329663
O  3.3669622866 -0.005262813 -1.5088845288
N  3.6545409705  0.8527947989  0.8098312628
H  3.3169354438  0.8347269325  1.7745091029
N  0.7594351161  1.3943887297 -0.975615504
N -0.5497815863  1.7109610883 -0.8367221005
H -2.8496635028  0.5865204097  1.1465392123
H  3.7101192898  1.806835816  0.4469349963
H -2.9591240467  1.8313481769 -0.0385289263
$end

$rem
jobtype sp
exchange M062X
basis 6-31+G*
SMX_GAS_PHASE = TRUE
solvent_method sm12
$end

$smx
solvent water
charges mk
$end
--------------------------------------------------------------

             Standard Nuclear Orientation (Angstroms)
    I     Atom           X                Y                Z
 ----------------------------------------------------------------
    1      C       1.1251427650     0.4053176901    -0.2353513417
    2      C      -1.1599755486     0.9320337518     0.0390775985
    3      N      -2.4742508282     1.0075375865     0.3043866164
    4      S      -0.1240090778    -0.2765501542     0.7592001599
    5      S       2.8115771130    -0.1495914546    -0.1719525141
    6      O       2.7613466058    -1.4494845586     0.4876329663
    7      O       3.3669622866    -0.0052628130    -1.5088845288
    8      N       3.6545409705     0.8527947989     0.8098312628
    9      H       3.3169354438     0.8347269325     1.7745091029
   10      N       0.7594351161     1.3943887297    -0.9756155040
   11      N      -0.5497815863     1.7109610883    -0.8367221005
   12      H      -2.8496635028     0.5865204097     1.1465392123
   13      H       3.7101192898     1.8068358160     0.4469349963
   14      H      -2.9591240467     1.8313481769    -0.0385289263
 ----------------------------------------------------------------

    9   -1244.0977009448      8.06e-06  Convergence criterion met
 Total energy in the final basis set =    -1244.0977009448
    5   -1244.0902922374      9.14e-06  Convergence criterion met
 Total energy in the final basis set =    -1244.1277667889

                    Orbital Energies (a.u.)
 --------------------------------------------------------------

 Alpha MOs
 -- Occupied --
-90.1935 -89.9960 -19.6713 -19.6704 -14.8354 -14.8167 -14.8082 -14.8067
-10.6869 -10.6561  -8.5064  -8.3443  -6.4286  -6.4282  -6.4278  -6.2644
 -6.2626  -6.2595  -1.2752  -1.1827  -1.1604  -1.0706  -1.0468  -0.9508
 -0.9167  -0.8017  -0.7216  -0.7013  -0.6564  -0.6285  -0.6132  -0.6046
 -0.5624  -0.5543  -0.5418  -0.5200  -0.4527  -0.4506  -0.4366  -0.4292
 -0.4132  -0.4065  -0.3865  -0.3748  -0.3614  -0.3058

          Ground-State Mulliken Net Atomic Charges

     Atom                 Charge (a.u.)
  ----------------------------------------
      1 C                    -0.887772
      2 C                     0.056509
      3 N                    -0.480556
      4 S                     1.087755
      5 S                     1.149341
      6 O                    -0.703479
      7 O                    -0.732484
      8 N                    -0.787667
      9 H                     0.509431
     10 N                    -0.392708
     11 N                    -0.280718
     12 H                     0.482674
     13 H                     0.507958
     14 H                     0.471715
  ----------------------------------------
  Sum of atomic charges =     0.000000

                    Cartesian Multipole Moments
 -----------------------------------------------------------------
    Charge (ESU x 10^10)
                 0.0000
    Dipole Moment (Debye)
         X      -6.5640      Y       2.9769      Z       6.7511
       Tot       9.8755
    Quadrupole Moments (Debye-Ang)
        XX     -69.0931     XY       8.1947     YY     -75.3832
        XZ       6.8548     YZ       8.1306     ZZ     -74.6099

 Total job time:  9.46s(wall), 113.59s(cpu)
        *  Thank you very much for using Q-Chem.  Have a nice day.  *
