 Q-Chem 5.4 (devel), Q-Chem, Inc., Pleasanton, CA (2021)
 Q-Chem 5.4.1 for Intel X86 EM64T Linux

User input:
--------------------------------------------------------------
$molecule
0  1
C -1.4518308703  1.2029590175 -0.4512235674
S -1.5350860428  0.7643395092  1.2598510674
O -0.1951109582  0.932859636  1.8077119193
O -2.6693818206  1.4942740768  1.817612584
N -1.8986317847 -0.8307565023  1.3833787688
H -1.1725963306 -1.429848487  0.9851627894
H -2.8185686129 -1.0553584968  0.998421997
S -2.8773945277  1.7145643532 -1.2795768392
C -1.9490794756  1.8036355334 -2.7438250239
C -0.6116968422  1.4873728273 -2.5835590429
C -0.3352567503  1.1230245562 -1.2224354186
S -2.6287895617  2.3487189957 -4.2568595429
N  0.3419238504  1.5804912177 -3.5599422721
H  0.6456832222  0.830471193 -0.8626132361
C -1.117307796  2.7811811062 -5.1422762427
C -0.1071651278  1.6519066642 -4.9437986828
O -3.3024496656  1.2383871062 -4.9554545143
O -3.4505156627  3.548126393 -4.0090567425
C -1.4657901249  3.0295733016 -6.6114016877
C -0.4088528876  3.8879108199 -7.2996451215
O -0.2923979912  5.1771377936 -6.7070452535
H  1.1724536715  1.0186124638 -3.401664505
H -0.7746499013  3.7032630352 -4.6571447921
H  0.7618589517  1.8526212447 -5.5726098424
H -0.5504004418  0.700226668 -5.2719173129
H -2.4295130895  3.5478593233 -6.6921777602
H -1.5584875858  2.0728478155 -7.1371690043
H -0.663414224  3.9778074887 -8.3614138217
H  0.5824370409  3.4334804302 -7.2259974653
H -1.1245196611  5.6564099157 -6.8516764339
$end

$rem
jobtype sp
exchange M062X
basis 6-31+G*
SMX_GAS_PHASE = TRUE
solvent_method sm12
$end

$smx
solvent water
charges mk
$end
--------------------------------------------------------------

             Standard Nuclear Orientation (Angstroms)
    I     Atom           X                Y                Z
 ----------------------------------------------------------------
    1      C      -1.4518308703     1.2029590175    -0.4512235674
    2      S      -1.5350860428     0.7643395092     1.2598510674
    3      O      -0.1951109582     0.9328596360     1.8077119193
    4      O      -2.6693818206     1.4942740768     1.8176125840
    5      N      -1.8986317847    -0.8307565023     1.3833787688
    6      H      -1.1725963306    -1.4298484870     0.9851627894
    7      H      -2.8185686129    -1.0553584968     0.9984219970
    8      S      -2.8773945277     1.7145643532    -1.2795768392
    9      C      -1.9490794756     1.8036355334    -2.7438250239
   10      C      -0.6116968422     1.4873728273    -2.5835590429
   11      C      -0.3352567503     1.1230245562    -1.2224354186
   12      S      -2.6287895617     2.3487189957    -4.2568595429
   13      N       0.3419238504     1.5804912177    -3.5599422721
   14      H       0.6456832222     0.8304711930    -0.8626132361
   15      C      -1.1173077960     2.7811811062    -5.1422762427
   16      C      -0.1071651278     1.6519066642    -4.9437986828
   17      O      -3.3024496656     1.2383871062    -4.9554545143
   18      O      -3.4505156627     3.5481263930    -4.0090567425
   19      C      -1.4657901249     3.0295733016    -6.6114016877
   20      C      -0.4088528876     3.8879108199    -7.2996451215
   21      O      -0.2923979912     5.1771377936    -6.7070452535
   22      H       1.1724536715     1.0186124638    -3.4016645050
   23      H      -0.7746499013     3.7032630352    -4.6571447921
   24      H       0.7618589517     1.8526212447    -5.5726098424
   25      H      -0.5504004418     0.7002266680    -5.2719173129
   26      H      -2.4295130895     3.5478593233    -6.6921777602
   27      H      -1.5584875858     2.0728478155    -7.1371690043
   28      H      -0.6634142240     3.9778074887    -8.3614138217
   29      H       0.5824370409     3.4334804302    -7.2259974653
   30      H      -1.1245196611     5.6564099157    -6.8516764339
 ----------------------------------------------------------------

    8   -1991.6805643547      7.43e-06  Convergence criterion met
 Total energy in the final basis set =    -1991.6805643547
    5   -1991.6696328918      5.58e-06  Convergence criterion met
 Total energy in the final basis set =    -1991.7266151143

                    Orbital Energies (a.u.)
 --------------------------------------------------------------

 Alpha MOs
 -- Occupied --
-90.1913 -90.1558 -89.9923 -19.6696 -19.6672 -19.6563 -19.6549 -19.6533
-14.8140 -14.8046 -10.6419 -10.6395 -10.6184 -10.6094 -10.6072 -10.6037
-10.6011 -10.5684  -8.5040  -8.4740  -8.3394  -6.4262  -6.4259  -6.4254
 -6.3956  -6.3955  -6.3947  -6.2599  -6.2577  -6.2546  -1.2718  -1.2430
 -1.1577  -1.1525  -1.1336  -1.0915  -1.0445  -1.0149  -0.9451  -0.8965
 -0.8685  -0.8415  -0.7996  -0.7630  -0.7426  -0.7006  -0.6905  -0.6452
 -0.6395  -0.6263  -0.6200  -0.6007  -0.5932  -0.5848  -0.5797  -0.5587
 -0.5520  -0.5439  -0.5317  -0.5218  -0.5096  -0.4980  -0.4893  -0.4786
 -0.4609  -0.4534  -0.4453  -0.4385  -0.4312  -0.4266  -0.4200  -0.4156
 -0.4110  -0.4025  -0.4000  -0.3952  -0.3871  -0.3745  -0.3572  -0.3339
 -0.2837

          Ground-State Mulliken Net Atomic Charges

     Atom                 Charge (a.u.)
  ----------------------------------------
      1 C                    -1.447521
      2 S                     1.541586
      3 O                    -0.670987
      4 O                    -0.739719
      5 N                    -0.761642
      6 H                     0.515101
      7 H                     0.509642
      8 S                    -0.015739
      9 C                    -1.571283
     10 C                     1.253070
     11 C                     0.380731
     12 S                     0.578057
     13 N                    -0.434990
     14 H                     0.332249
     15 C                    -0.967666
     16 C                     0.723084
     17 O                    -0.576646
     18 O                    -0.711016
     19 C                    -0.117182
     20 C                     0.005029
     21 O                    -0.764984
     22 H                     0.504441
     23 H                     0.333722
     24 H                     0.297475
     25 H                     0.291131
     26 H                     0.242122
     27 H                     0.277348
     28 H                     0.237208
     29 H                     0.225104
     30 H                     0.532275
  ----------------------------------------
  Sum of atomic charges =     0.000000

                    Cartesian Multipole Moments
 -----------------------------------------------------------------
    Charge (ESU x 10^10)
                 0.0000
    Dipole Moment (Debye)
         X       6.7890      Y      -5.3930      Z      -6.8503
       Tot      11.0500
    Quadrupole Moments (Debye-Ang)
        XX    -154.0784     XY      15.4237     YY    -139.1086
        XZ     -19.6325     YZ     -12.6043     ZZ    -107.0466

 Total job time:  33.31s(wall), 440.25s(cpu)
        *  Thank you very much for using Q-Chem.  Have a nice day.  *
