 Q-Chem 5.4 (devel), Q-Chem, Inc., Pleasanton, CA (2021)
 Q-Chem 5.4.1 for Intel X86 EM64T Linux

User input:
--------------------------------------------------------------
$molecule
0  1
C -1.1007988041  0.7586913664 -1.4394421396
S -1.3490265652  0.6247942887  0.3237236817
O -0.0409381537  0.8787356285  0.9180939636
O -2.4986083108  1.447668072  0.6742132126
N -1.7477561422 -0.9251651594  0.6686228609
H -1.0100081637 -1.587479504  0.419735804
H -2.6490576178 -1.1971081249  0.2707013354
N -2.0832663917  0.6994869389 -2.266230658
C -1.6051905311  0.7891014257 -3.5622569655
C -0.2078367785  0.9145687867 -3.6731455482
S  0.5084673562  0.9203353183 -2.0865486332
C -2.3917737877  0.7657002416 -4.7274164136
C -1.7678064685  0.8664638893 -5.9496012724
C -0.3597400533  0.9943597466 -6.0437300036
C  0.4425831942  1.0216361796 -4.9079392551
O  0.1233017893  1.084702135 -7.3091512128
C  1.5396104142  1.22147164 -7.4849841127
C  1.8050619279  1.3028149166 -8.9702237402
H -3.4703072124  0.6690745442 -4.6528269381
H -2.341687587  0.8508976456 -6.8709030809
H  1.5202253536  1.1191181175 -4.9624844769
H  2.0393693947  0.3542613281 -7.0379689255
H  1.8763562519  2.1284840523 -6.9696852551
H  1.4607822592  0.3957346731 -9.4756619249
H  2.880120223  1.4084420974 -9.1419732263
H  1.2975414035  2.1674467563 -9.4079340756
$end

$rem
jobtype sp
exchange M062X
basis 6-31+G*
xc_grid 1
SMX_GAS_PHASE = TRUE
solvent_method sm12
$end

$smx
solvent water
charges mk
$end
--------------------------------------------------------------

             Standard Nuclear Orientation (Angstroms)
    I     Atom           X                Y                Z
 ----------------------------------------------------------------
    1      C      -1.1007988041     0.7586913664    -1.4394421396
    2      S      -1.3490265652     0.6247942887     0.3237236817
    3      O      -0.0409381537     0.8787356285     0.9180939636
    4      O      -2.4986083108     1.4476680720     0.6742132126
    5      N      -1.7477561422    -0.9251651594     0.6686228609
    6      H      -1.0100081637    -1.5874795040     0.4197358040
    7      H      -2.6490576178    -1.1971081249     0.2707013354
    8      N      -2.0832663917     0.6994869389    -2.2662306580
    9      C      -1.6051905311     0.7891014257    -3.5622569655
   10      C      -0.2078367785     0.9145687867    -3.6731455482
   11      S       0.5084673562     0.9203353183    -2.0865486332
   12      C      -2.3917737877     0.7657002416    -4.7274164136
   13      C      -1.7678064685     0.8664638893    -5.9496012724
   14      C      -0.3597400533     0.9943597466    -6.0437300036
   15      C       0.4425831942     1.0216361796    -4.9079392551
   16      O       0.1233017893     1.0847021350    -7.3091512128
   17      C       1.5396104142     1.2214716400    -7.4849841127
   18      C       1.8050619279     1.3028149166    -8.9702237402
   19      H      -3.4703072124     0.6690745442    -4.6528269381
   20      H      -2.3416875870     0.8508976456    -6.8709030809
   21      H       1.5202253536     1.1191181175    -4.9624844769
   22      H       2.0393693947     0.3542613281    -7.0379689255
   23      H       1.8763562519     2.1284840523    -6.9696852551
   24      H       1.4607822592     0.3957346731    -9.4756619249
   25      H       2.8801202230     1.4084420974    -9.1419732263
   26      H       1.2975414035     2.1674467563    -9.4079340756
 ----------------------------------------------------------------

    8   -1480.1308011315      9.86e-06  Convergence criterion met
 Total energy in the final basis set =    -1480.1308011315
    5   -1480.1259871030      4.61e-06  Convergence criterion met
 Total energy in the final basis set =    -1480.1570798806

                    Orbital Energies (a.u.)
 --------------------------------------------------------------

 Alpha MOs
 -- Occupied --
-90.1942 -89.9905 -19.6885 -19.6704 -19.6696 -14.8168 -14.8108 -10.6639
-10.6401 -10.6187 -10.6104 -10.6086 -10.5807 -10.5807 -10.5720 -10.5420
 -8.5027  -8.3334  -6.4247  -6.4243  -6.4238  -6.2532  -6.2508  -6.2491
 -1.2735  -1.2056  -1.1587  -1.1171  -1.0458  -0.9802  -0.9304  -0.8899
 -0.8582  -0.8495  -0.7904  -0.7402  -0.7070  -0.6980  -0.6848  -0.6332
 -0.6286  -0.6148  -0.6036  -0.5883  -0.5709  -0.5559  -0.5453  -0.5312
 -0.5301  -0.4994  -0.4891  -0.4800  -0.4707  -0.4517  -0.4482  -0.4354
 -0.4348  -0.4284  -0.4180  -0.4119  -0.4059  -0.4039  -0.3892  -0.3833
 -0.3733  -0.3117  -0.2888

          Ground-State Mulliken Net Atomic Charges

     Atom                 Charge (a.u.)
  ----------------------------------------
      1 C                    -0.935473
      2 S                     1.617927
      3 O                    -0.681224
      4 O                    -0.672149
      5 N                    -0.775345
      6 H                     0.510919
      7 H                     0.510317
      8 N                    -0.160106
      9 C                    -1.253760
     10 C                     0.825175
     11 S                     0.681626
     12 C                    -1.030136
     13 C                    -0.596872
     14 C                     0.160459
     15 C                     0.961473
     16 O                    -0.482168
     17 C                     0.419191
     18 C                    -1.112667
     19 H                     0.280997
     20 H                     0.267060
     21 H                     0.292683
     22 H                     0.239504
     23 H                     0.244708
     24 H                     0.225000
     25 H                     0.237287
     26 H                     0.225562
  ----------------------------------------
  Sum of atomic charges =    -0.000011

                    Cartesian Multipole Moments
 -----------------------------------------------------------------
    Charge (ESU x 10^10)
                -0.0001
    Dipole Moment (Debye)
         X       2.9809      Y      -3.9484      Z      -7.4975
       Tot       8.9827
    Quadrupole Moments (Debye-Ang)
        XX    -104.7117     XY      12.4210     YY    -108.4240
        XZ     -10.6507     YZ     -10.2268     ZZ     -76.1740

 Total job time:  17.04s(wall), 212.59s(cpu)
        *  Thank you very much for using Q-Chem.  Have a nice day.  *
