 Q-Chem 5.4 (devel), Q-Chem, Inc., Pleasanton, CA (2021)
 Q-Chem 5.4.1 for Intel X86 EM64T Linux

User input:
--------------------------------------------------------------
$molecule
0  1
C -1.3731073016  0.3032416026 -1.1267941441
C -2.4741403323  0.7079411161 -1.9045181731
Cl -4.0064683327  1.0875708407 -1.1707957356
C -2.3821066737  0.811644237 -3.2770611212
H -3.239019065  1.1241592052 -3.8659446884
C -1.1634113315  0.5180216031 -3.9157491646
C -0.0638635823  0.0959071035 -3.1440055903
C  1.1869408393 -0.3304974534 -3.8199572212
C -0.1786733213 -0.0121996978 -1.7646702885
H  0.6743549726 -0.3490296846 -1.1847176007
S -1.4250919638  0.1761555993  0.6457771994
O -0.1170427755 -0.3244749639  1.0633006902
O -1.9115651962  1.4376430088  1.202357306
N -2.5163466873 -0.9762452056  1.0900639667
H -2.3024788656 -1.8881921894  0.6814300803
H -3.4812450416 -0.7033576809  0.8984091556
N -1.0325369965  0.5651727056 -5.2754969886
C  0.2951048562  0.8465564941 -5.8093584682
N  1.2665520556 -0.042219729 -5.1448651794
C  0.6870080876  2.3117840383 -5.673342671
H -1.7762739261  1.0507329594 -5.7706610727
H  0.2837630924  0.5638057666 -6.8628063786
H  1.6840030398  2.4760523262 -6.0950664613
H  0.6899029338  2.6168935861 -4.6214193845
O  2.0677302972 -0.9591324595 -3.2194182488
C  2.4554569779 -0.3590566379 -5.8856161563
C  3.6893268318  0.2238147921 -5.5593361152
C  3.8690093367  1.1742363845 -4.4061058638
C  4.7925658333 -0.1172971674 -6.3536647901
H  5.7574148288  0.3257641178 -6.1181232201
C  4.6784860667 -0.9914265562 -7.430986064
H  5.5536736049 -1.2311061739 -8.027888934
C  3.4392840893 -1.5514120912 -7.7450933019
H  3.3367823195 -2.2328223787 -8.5840753992
C  2.3303787865 -1.2330391002 -6.9684332379
H  1.3558033263 -1.6593206738 -7.192377851
H -0.0290245038  2.9300415268 -6.2232445116
H  4.616305844  1.9323124585 -4.6570754069
H  4.2215931886  0.637161157 -3.5183796748
H  2.9396476883  1.6817962142 -4.1355132906
$end

$rem
jobtype sp
exchange M062X
basis 6-31+G*
SMX_GAS_PHASE = TRUE
solvent_method sm12
$end

$smx
solvent water
charges mk
$end
--------------------------------------------------------------

             Standard Nuclear Orientation (Angstroms)
    I     Atom           X                Y                Z
 ----------------------------------------------------------------
    1      C      -1.3731073016     0.3032416026    -1.1267941441
    2      C      -2.4741403323     0.7079411161    -1.9045181731
    3      Cl     -4.0064683327     1.0875708407    -1.1707957356
    4      C      -2.3821066737     0.8116442370    -3.2770611212
    5      H      -3.2390190650     1.1241592052    -3.8659446884
    6      C      -1.1634113315     0.5180216031    -3.9157491646
    7      C      -0.0638635823     0.0959071035    -3.1440055903
    8      C       1.1869408393    -0.3304974534    -3.8199572212
    9      C      -0.1786733213    -0.0121996978    -1.7646702885
   10      H       0.6743549726    -0.3490296846    -1.1847176007
   11      S      -1.4250919638     0.1761555993     0.6457771994
   12      O      -0.1170427755    -0.3244749639     1.0633006902
   13      O      -1.9115651962     1.4376430088     1.2023573060
   14      N      -2.5163466873    -0.9762452056     1.0900639667
   15      H      -2.3024788656    -1.8881921894     0.6814300803
   16      H      -3.4812450416    -0.7033576809     0.8984091556
   17      N      -1.0325369965     0.5651727056    -5.2754969886
   18      C       0.2951048562     0.8465564941    -5.8093584682
   19      N       1.2665520556    -0.0422197290    -5.1448651794
   20      C       0.6870080876     2.3117840383    -5.6733426710
   21      H      -1.7762739261     1.0507329594    -5.7706610727
   22      H       0.2837630924     0.5638057666    -6.8628063786
   23      H       1.6840030398     2.4760523262    -6.0950664613
   24      H       0.6899029338     2.6168935861    -4.6214193845
   25      O       2.0677302972    -0.9591324595    -3.2194182488
   26      C       2.4554569779    -0.3590566379    -5.8856161563
   27      C       3.6893268318     0.2238147921    -5.5593361152
   28      C       3.8690093367     1.1742363845    -4.4061058638
   29      C       4.7925658333    -0.1172971674    -6.3536647901
   30      H       5.7574148288     0.3257641178    -6.1181232201
   31      C       4.6784860667    -0.9914265562    -7.4309860640
   32      H       5.5536736049    -1.2311061739    -8.0278889340
   33      C       3.4392840893    -1.5514120912    -7.7450933019
   34      H       3.3367823195    -2.2328223787    -8.5840753992
   35      C       2.3303787865    -1.2330391002    -6.9684332379
   36      H       1.3558033263    -1.6593206738    -7.1923778510
   37      H      -0.0290245038     2.9300415268    -6.2232445116
   38      H       4.6163058440     1.9323124585    -4.6570754069
   39      H       4.2215931886     0.6371611570    -3.5183796748
   40      H       2.9396476883     1.6817962142    -4.1355132906
 ----------------------------------------------------------------

    8   -1867.1500612830      9.86e-06  Convergence criterion met
 Total energy in the final basis set =    -1867.1500612830
    5   -1867.1397251708      5.67e-06  Convergence criterion met
 Total energy in the final basis set =    -1867.1858916722

                    Orbital Energies (a.u.)
 --------------------------------------------------------------

 Alpha MOs
 -- Occupied --
******** -90.1802 -19.6596 -19.6580 -19.6270 -14.8162 -14.8079 -14.8049
-10.6767 -10.6583 -10.6457 -10.6377 -10.6106 -10.6049 -10.5971 -10.5881
-10.5852 -10.5769 -10.5682 -10.5653 -10.5643 -10.5627 -10.5474 -10.5456
 -9.8455  -8.4934  -7.5698  -7.5633  -7.5628  -6.4157  -6.4152  -6.4145
 -1.2611  -1.1783  -1.1463  -1.1119  -1.0553  -1.0387  -1.0222  -0.9696
 -0.9653  -0.9015  -0.8848  -0.8794  -0.8568  -0.8433  -0.7911  -0.7770
 -0.7532  -0.7425  -0.7226  -0.7018  -0.6867  -0.6627  -0.6392  -0.6354
 -0.6207  -0.6116  -0.5928  -0.5769  -0.5727  -0.5601  -0.5535  -0.5465
 -0.5381  -0.5360  -0.5300  -0.5190  -0.5074  -0.5014  -0.4993  -0.4907
 -0.4865  -0.4850  -0.4683  -0.4575  -0.4456  -0.4428  -0.4409  -0.4373
 -0.4330  -0.4228  -0.4191  -0.4148  -0.4143  -0.4094  -0.3980  -0.3889
 -0.3786  -0.3538  -0.3449  -0.3308  -0.3120  -0.3058  -0.2839

          Ground-State Mulliken Net Atomic Charges

     Atom                 Charge (a.u.)
  ----------------------------------------
      1 C                    -3.550299
      2 C                     0.608168
      3 Cl                    0.280036
      4 C                     0.690743
      5 H                     0.298528
      6 C                     0.780590
      7 C                     0.905716
      8 C                    -0.320261
      9 C                    -0.108208
     10 H                     0.287165
     11 S                     1.097116
     12 O                    -0.788869
     13 O                    -0.612089
     14 N                    -0.846026
     15 H                     0.512180
     16 H                     0.493261
     17 N                    -0.272636
     18 C                     0.639165
     19 N                    -0.085487
     20 C                    -0.460037
     21 H                     0.518925
     22 H                     0.282503
     23 H                     0.251203
     24 H                     0.249434
     25 O                    -0.763465
     26 C                    -0.525010
     27 C                     0.139059
     28 C                    -0.624424
     29 C                    -0.391827
     30 H                     0.247853
     31 C                    -0.384484
     32 H                     0.257278
     33 C                    -0.448095
     34 H                     0.260151
     35 C                     0.085137
     36 H                     0.279242
     37 H                     0.259729
     38 H                     0.244255
     39 H                     0.258715
     40 H                     0.254992
  ----------------------------------------
  Sum of atomic charges =    -0.000076

                    Cartesian Multipole Moments
 -----------------------------------------------------------------
    Charge (ESU x 10^10)
                -0.0004
    Dipole Moment (Debye)
         X      -4.1345      Y       1.0592      Z     -12.0100
       Tot      12.7458
    Quadrupole Moments (Debye-Ang)
        XX    -138.3661     XY      11.7619     YY    -153.6131
        XZ       9.6996     YZ     -20.2701     ZZ     -96.1616

 Total job time:  102.58s(wall), 785.16s(cpu)
        *  Thank you very much for using Q-Chem.  Have a nice day.  *
