 Q-Chem 5.4 (devel), Q-Chem, Inc., Pleasanton, CA (2021)
 Q-Chem 5.4.1 for Intel X86 EM64T Linux

User input:
--------------------------------------------------------------
$molecule
0  1
C -1.3107189892  0.7285247859 -0.7500127946
C -2.4065913197  0.546590483 -1.6195286708
Cl -4.0352536263  0.5817289593 -1.0170404983
C -2.2267914639  0.3339292248 -2.9672464705
H -3.0826626622  0.2015820324 -3.6221815986
C -0.9264496934  0.2786683353 -3.5156357424
C  0.1537904336  0.457033365 -2.6342340476
S  1.8086742628  0.3809961458 -3.2293240236
C -0.0304174273  0.6871535668 -1.2751992236
H  0.8363541462  0.8375388179 -0.6375892344
S -1.5528301629  1.0057287407  0.9959888675
O -2.2492536359  2.2808629678  1.1616003149
O -2.1427817576 -0.2038408181  1.5682862591
N -0.0821846354  1.1815237295  1.6896616432
H  0.4223244483  2.0201631186  1.399106953
H  0.4980120567  0.3417729458  1.6673162622
N -0.747188616  0.1100764865 -4.8506611835
C  0.5409406308 -0.2419023417 -5.413426639
N  1.5578708145  0.6942829599 -4.8654101554
O  2.5885961279  1.4848363863 -2.6679772428
O  2.3548914222 -0.9670827227 -3.019967533
H -1.562405706 -0.1612810431 -5.3950697284
C  2.8582836805  0.6475031134 -5.5762904121
C  0.492159187 -0.1252225097 -6.9343431509
S -0.8746818578 -1.0530143586 -7.7046946964
C -0.5845264888 -2.7548379913 -7.1503590058
C  0.6095204592 -3.4198806193 -7.7862132878
H  0.821493941 -1.2714185873 -5.1386427907
H  2.7504679272  1.1770463541 -6.5219100317
H  3.1888942377 -0.3815666228 -5.7557743453
H  3.6048467685  1.1745221721 -4.9806656488
H  1.4366011658 -0.4493454665 -7.3675534407
H  0.3136598305  0.9162615913 -7.2216657707
H -1.472084433 -3.322225327 -7.4441619492
H -0.4806201403 -2.8257734142 -6.0644339732
F  0.5491639164 -3.434520915 -9.1288371914
F  0.7100789857 -4.7024018573 -7.3862374479
F  1.7718731733 -2.8204116873 -7.4573493706
$end

$rem
jobtype sp
exchange M062X
basis 6-31+G*
SMX_GAS_PHASE = TRUE
solvent_method sm12
$end

$smx
solvent water
charges mk
$end
--------------------------------------------------------------

             Standard Nuclear Orientation (Angstroms)
    I     Atom           X                Y                Z
 ----------------------------------------------------------------
    1      C      -1.3107189892     0.7285247859    -0.7500127946
    2      C      -2.4065913197     0.5465904830    -1.6195286708
    3      Cl     -4.0352536263     0.5817289593    -1.0170404983
    4      C      -2.2267914639     0.3339292248    -2.9672464705
    5      H      -3.0826626622     0.2015820324    -3.6221815986
    6      C      -0.9264496934     0.2786683353    -3.5156357424
    7      C       0.1537904336     0.4570333650    -2.6342340476
    8      S       1.8086742628     0.3809961458    -3.2293240236
    9      C      -0.0304174273     0.6871535668    -1.2751992236
   10      H       0.8363541462     0.8375388179    -0.6375892344
   11      S      -1.5528301629     1.0057287407     0.9959888675
   12      O      -2.2492536359     2.2808629678     1.1616003149
   13      O      -2.1427817576    -0.2038408181     1.5682862591
   14      N      -0.0821846354     1.1815237295     1.6896616432
   15      H       0.4223244483     2.0201631186     1.3991069530
   16      H       0.4980120567     0.3417729458     1.6673162622
   17      N      -0.7471886160     0.1100764865    -4.8506611835
   18      C       0.5409406308    -0.2419023417    -5.4134266390
   19      N       1.5578708145     0.6942829599    -4.8654101554
   20      O       2.5885961279     1.4848363863    -2.6679772428
   21      O       2.3548914222    -0.9670827227    -3.0199675330
   22      H      -1.5624057060    -0.1612810431    -5.3950697284
   23      C       2.8582836805     0.6475031134    -5.5762904121
   24      C       0.4921591870    -0.1252225097    -6.9343431509
   25      S      -0.8746818578    -1.0530143586    -7.7046946964
   26      C      -0.5845264888    -2.7548379913    -7.1503590058
   27      C       0.6095204592    -3.4198806193    -7.7862132878
   28      H       0.8214939410    -1.2714185873    -5.1386427907
   29      H       2.7504679272     1.1770463541    -6.5219100317
   30      H       3.1888942377    -0.3815666228    -5.7557743453
   31      H       3.6048467685     1.1745221721    -4.9806656488
   32      H       1.4366011658    -0.4493454665    -7.3675534407
   33      H       0.3136598305     0.9162615913    -7.2216657707
   34      H      -1.4720844330    -3.3222253270    -7.4441619492
   35      H      -0.4806201403    -2.8257734142    -6.0644339732
   36      F       0.5491639164    -3.4345209150    -9.1288371914
   37      F       0.7100789857    -4.7024018573    -7.3862374479
   38      F       1.7718731733    -2.8204116873    -7.4573493706
 ----------------------------------------------------------------

    8   -2845.7220304113      8.75e-06  Convergence criterion met
 Total energy in the final basis set =    -2845.7220304113
    5   -2845.7113671309      4.25e-06  Convergence criterion met
 Total energy in the final basis set =    -2845.7638000726

                    Orbital Energies (a.u.)
 --------------------------------------------------------------

 Alpha MOs
 -- Occupied --
******** -90.1839 -90.1797 -89.9430 -25.3111 -25.3089 -25.3085 -19.6665
-19.6639 -19.6597 -19.6595 -14.8245 -14.8160 -14.8123 -10.8194 -10.6636
-10.6605 -10.6558 -10.6197 -10.6186 -10.6164 -10.6102 -10.6005 -10.5968
-10.5917  -9.8432  -8.4969  -8.4950  -8.2913  -7.5675  -7.5608  -7.5604
 -6.4194  -6.4186  -6.4179  -6.4171  -6.4165  -6.4160  -6.2124  -6.2098
 -6.2054  -1.4763  -1.3842  -1.3833  -1.2648  -1.2626  -1.1468  -1.1463
 -1.1231  -1.0585  -1.0438  -1.0288  -0.9786  -0.9491  -0.9141  -0.8953
 -0.8771  -0.8299  -0.8193  -0.7853  -0.7721  -0.7483  -0.7412  -0.7167
 -0.7034  -0.6992  -0.6774  -0.6659  -0.6504  -0.6406  -0.6294  -0.6264
 -0.6142  -0.6010  -0.5858  -0.5841  -0.5827  -0.5740  -0.5615  -0.5516
 -0.5491  -0.5473  -0.5454  -0.5410  -0.5338  -0.5220  -0.5198  -0.5144
 -0.5079  -0.4979  -0.4947  -0.4868  -0.4799  -0.4758  -0.4567  -0.4458
 -0.4425  -0.4363  -0.4290  -0.4231  -0.4158  -0.4143  -0.4086  -0.4060
 -0.3933  -0.3924  -0.3891  -0.3842  -0.3503  -0.3378  -0.3139  -0.2942

          Ground-State Mulliken Net Atomic Charges

     Atom                 Charge (a.u.)
  ----------------------------------------
      1 C                    -3.208836
      2 C                    -0.984928
      3 Cl                    0.074132
      4 C                     0.738936
      5 H                     0.306167
      6 C                     1.909663
      7 C                    -1.360130
      8 S                     1.027175
      9 C                     1.077889
     10 H                     0.306864
     11 S                     1.276852
     12 O                    -0.638718
     13 O                    -0.645434
     14 N                    -1.016545
     15 H                     0.541361
     16 H                     0.539057
     17 N                    -0.239457
     18 C                    -0.711272
     19 N                    -0.595895
     20 O                    -0.698988
     21 O                    -0.571718
     22 H                     0.485019
     23 C                    -0.343888
     24 C                     0.682710
     25 S                     0.330086
     26 C                    -0.400147
     27 C                     0.653756
     28 H                     0.287477
     29 H                     0.302420
     30 H                     0.296167
     31 H                     0.253524
     32 H                     0.313671
     33 H                     0.332522
     34 H                     0.340022
     35 H                     0.330327
     36 F                    -0.330413
     37 F                    -0.341478
     38 F                    -0.317961
  ----------------------------------------
  Sum of atomic charges =    -0.000010

                    Cartesian Multipole Moments
 -----------------------------------------------------------------
    Charge (ESU x 10^10)
                -0.0000
    Dipole Moment (Debye)
         X       1.5579      Y      -1.0151      Z      -9.8832
       Tot      10.0566
    Quadrupole Moments (Debye-Ang)
        XX    -188.5356     XY      15.2026     YY    -187.6852
        XZ      26.3412     YZ      -5.5618     ZZ    -129.5005

 Total job time:  99.22s(wall), 750.49s(cpu)
        *  Thank you very much for using Q-Chem.  Have a nice day.  *
