 Q-Chem 5.4 (devel), Q-Chem, Inc., Pleasanton, CA (2021)
 Q-Chem 5.4.1 for Intel X86 EM64T Linux

User input:
--------------------------------------------------------------
$molecule
0  1
C -1.4166791217  0.6783851298 -0.786903377
C -2.5540581373  0.6750906614 -1.6193947413
Cl -4.1562613695  0.755330721 -0.9469559747
C -2.4418515511  0.6289219691 -2.9891805972
H -3.3304465052  0.6352033518 -3.6126388181
C -1.1705480644  0.5732380346 -3.6060537239
C -0.0407943895  0.5861452405 -2.7560626275
S  1.5889770188  0.5275138129 -3.4331577778
C -0.1608582076  0.6442707773 -1.3744511136
H  0.7265150514  0.6660577492 -0.7471676534
S -1.5017328171  0.7105888281  0.9879633273
O -2.3776535448 -0.3687235699  1.4376936342
O -0.1211637319  0.7543653904  1.4639400233
N -2.2029638813  2.1152213658  1.4829566328
H -3.1933735313  2.1700564377  1.2414286523
H -1.6944590443  2.938998834  1.155125319
N -1.0648752113  0.5619627612 -4.9547465815
C  0.1957359268  0.2889487745 -5.6111211964
N  1.2333603791  1.0979103708 -4.9558860647
O  2.4589703802  1.5010034531 -2.7731455366
O  2.0637611277 -0.8618899543 -3.454035338
H  0.1341746922  0.6128549292 -6.6476379002
H  2.0890544485  1.1530010501 -5.5167623992
H -1.9129803358  0.4408901281 -5.4975831665
H  0.4356664194 -0.7815962464 -5.5825450014
$end

$rem
jobtype sp
exchange M062X
basis 6-31+G*
SMX_GAS_PHASE = TRUE
solvent_method sm12
$end

$smx
solvent water
charges mk
$end
--------------------------------------------------------------

             Standard Nuclear Orientation (Angstroms)
    I     Atom           X                Y                Z
 ----------------------------------------------------------------
    1      C      -1.4166791217     0.6783851298    -0.7869033770
    2      C      -2.5540581373     0.6750906614    -1.6193947413
    3      Cl     -4.1562613695     0.7553307210    -0.9469559747
    4      C      -2.4418515511     0.6289219691    -2.9891805972
    5      H      -3.3304465052     0.6352033518    -3.6126388181
    6      C      -1.1705480644     0.5732380346    -3.6060537239
    7      C      -0.0407943895     0.5861452405    -2.7560626275
    8      S       1.5889770188     0.5275138129    -3.4331577778
    9      C      -0.1608582076     0.6442707773    -1.3744511136
   10      H       0.7265150514     0.6660577492    -0.7471676534
   11      S      -1.5017328171     0.7105888281     0.9879633273
   12      O      -2.3776535448    -0.3687235699     1.4376936342
   13      O      -0.1211637319     0.7543653904     1.4639400233
   14      N      -2.2029638813     2.1152213658     1.4829566328
   15      H      -3.1933735313     2.1700564377     1.2414286523
   16      H      -1.6944590443     2.9389988340     1.1551253190
   17      N      -1.0648752113     0.5619627612    -4.9547465815
   18      C       0.1957359268     0.2889487745    -5.6111211964
   19      N       1.2333603791     1.0979103708    -4.9558860647
   20      O       2.4589703802     1.5010034531    -2.7731455366
   21      O       2.0637611277    -0.8618899543    -3.4540353380
   22      H       0.1341746922     0.6128549292    -6.6476379002
   23      H       2.0890544485     1.1530010501    -5.5167623992
   24      H      -1.9129803358     0.4408901281    -5.4975831665
   25      H       0.4356664194    -0.7815962464    -5.5825450014
 ----------------------------------------------------------------

    8   -1992.7502450743      8.65e-06  Convergence criterion met
 Total energy in the final basis set =    -1992.7502450743
    5   -1992.7380802285      6.16e-06  Convergence criterion met
 Total energy in the final basis set =    -1992.7946872306

                    Orbital Energies (a.u.)
 --------------------------------------------------------------

 Alpha MOs
 -- Occupied --
******** -90.1827 -90.1809 -19.6652 -19.6625 -19.6618 -19.6596 -14.8180
-14.8153 -14.8094 -10.6626 -10.6552 -10.6435 -10.6155 -10.6141 -10.6122
-10.5942  -9.8477  -8.4958  -8.4958  -7.5720  -7.5655  -7.5650  -6.4181
 -6.4181  -6.4176  -6.4172  -6.4169  -6.4167  -1.2640  -1.2635  -1.1486
 -1.1462  -1.1179  -1.0495  -1.0400  -1.0253  -0.9753  -0.9049  -0.8881
 -0.8198  -0.7830  -0.7685  -0.7361  -0.6895  -0.6583  -0.6547  -0.6290
 -0.6221  -0.6060  -0.5962  -0.5929  -0.5727  -0.5659  -0.5479  -0.5434
 -0.5383  -0.5271  -0.5174  -0.5015  -0.4778  -0.4544  -0.4463  -0.4422
 -0.4286  -0.4251  -0.4194  -0.4163  -0.4123  -0.4025  -0.4003  -0.3920
 -0.3807  -0.3641  -0.3375  -0.2905

          Ground-State Mulliken Net Atomic Charges

     Atom                 Charge (a.u.)
  ----------------------------------------
      1 C                    -3.720236
      2 C                     1.544753
      3 Cl                    0.261218
      4 C                    -0.132532
      5 H                     0.309342
      6 C                     2.729528
      7 C                    -1.277766
      8 S                     1.337972
      9 C                    -0.614352
     10 H                     0.297403
     11 S                     1.090617
     12 O                    -0.615984
     13 O                    -0.777692
     14 N                    -0.809687
     15 H                     0.494224
     16 H                     0.513659
     17 N                    -0.469959
     18 C                     0.217914
     19 N                    -0.698162
     20 O                    -0.744597
     21 O                    -0.605577
     22 H                     0.324033
     23 H                     0.537385
     24 H                     0.536982
     25 H                     0.271511
  ----------------------------------------
  Sum of atomic charges =     0.000000

                    Cartesian Multipole Moments
 -----------------------------------------------------------------
    Charge (ESU x 10^10)
                 0.0000
    Dipole Moment (Debye)
         X      -6.2948      Y       3.7202      Z     -12.6954
       Tot      14.6505
    Quadrupole Moments (Debye-Ang)
        XX    -121.0477     XY     -11.5595     YY    -119.5945
        XZ      20.8759     YZ      -1.7905     ZZ     -54.5166

 Total job time:  40.14s(wall), 299.53s(cpu)
        *  Thank you very much for using Q-Chem.  Have a nice day.  *
