 Q-Chem 5.4 (devel), Q-Chem, Inc., Pleasanton, CA (2021)
 Q-Chem 5.4.1 for Intel X86 EM64T Linux

User input:
--------------------------------------------------------------
$molecule
0  1
C -1.9901823024  1.4106962141 -1.3453003275
C -2.5691702855  0.1734449965 -1.0448219949
Cl -4.0331302942  0.0417034118 -0.1127729296
C -1.976987631 -0.9947172618 -1.5064240083
H -2.42617221 -1.9546275657 -1.2735717576
C -0.8108622535 -0.9284899217 -2.265145955
C -0.2354274558  0.3014613864 -2.5794460473
C -0.8292487706  1.4726551208 -2.1101581845
S -2.6728832772  2.9620179314 -0.7656545216
O -2.8500975472  2.876508648  0.6813234676
O -1.8317156369  4.0185405564 -1.320993181
N -4.1672832703  3.177627811 -1.4151204277
H -4.8630411152  2.52341462 -1.0549424125
H -4.1538112873  3.1889719079 -2.4369748397
H -0.3932077896  2.4422412458 -2.3301534087
C  1.0759554873  0.3607372407 -3.361438242
N  1.1838059052  1.5826396982 -4.1494621312
C  2.271603975  0.5003656436 -2.4310815137
C  2.1669351482  2.4291685397 -3.7334328903
C  2.9006558474  1.7179095916 -2.6540476601
O  2.385275687  3.5554741735 -4.1769946166
C  2.7435222813 -0.3905824106 -1.4797092569
C  3.8760293986 -0.0135385813 -0.7515627877
C  4.5066583178  1.2177622986 -0.9721712739
C  4.0233988533  2.1059112711 -1.9341362284
O  1.2639837512 -0.798930937 -4.1377020652
H -0.3557387538 -1.8499462251 -2.6133944562
H  0.4254572357  1.9034351694 -4.7448225848
H  2.252512121 -1.3436757286 -1.3019989244
H  4.2731906457 -0.6862809725  0.0026212032
H  5.3818441464  1.4812699673 -0.3864187852
H  4.5046249371  3.0622453327 -2.1174588037
H  0.486513142 -0.932537172 -4.7089934542
$end

$rem
jobtype sp
exchange M062X
basis 6-31+G*
SMX_GAS_PHASE = TRUE
solvent_method sm12
$end

$smx
solvent water
charges mk
$end
--------------------------------------------------------------

             Standard Nuclear Orientation (Angstroms)
    I     Atom           X                Y                Z
 ----------------------------------------------------------------
    1      C      -1.9901823024     1.4106962141    -1.3453003275
    2      C      -2.5691702855     0.1734449965    -1.0448219949
    3      Cl     -4.0331302942     0.0417034118    -0.1127729296
    4      C      -1.9769876310    -0.9947172618    -1.5064240083
    5      H      -2.4261722100    -1.9546275657    -1.2735717576
    6      C      -0.8108622535    -0.9284899217    -2.2651459550
    7      C      -0.2354274558     0.3014613864    -2.5794460473
    8      C      -0.8292487706     1.4726551208    -2.1101581845
    9      S      -2.6728832772     2.9620179314    -0.7656545216
   10      O      -2.8500975472     2.8765086480     0.6813234676
   11      O      -1.8317156369     4.0185405564    -1.3209931810
   12      N      -4.1672832703     3.1776278110    -1.4151204277
   13      H      -4.8630411152     2.5234146200    -1.0549424125
   14      H      -4.1538112873     3.1889719079    -2.4369748397
   15      H      -0.3932077896     2.4422412458    -2.3301534087
   16      C       1.0759554873     0.3607372407    -3.3614382420
   17      N       1.1838059052     1.5826396982    -4.1494621312
   18      C       2.2716039750     0.5003656436    -2.4310815137
   19      C       2.1669351482     2.4291685397    -3.7334328903
   20      C       2.9006558474     1.7179095916    -2.6540476601
   21      O       2.3852756870     3.5554741735    -4.1769946166
   22      C       2.7435222813    -0.3905824106    -1.4797092569
   23      C       3.8760293986    -0.0135385813    -0.7515627877
   24      C       4.5066583178     1.2177622986    -0.9721712739
   25      C       4.0233988533     2.1059112711    -1.9341362284
   26      O       1.2639837512    -0.7989309370    -4.1377020652
   27      H      -0.3557387538    -1.8499462251    -2.6133944562
   28      H       0.4254572357     1.9034351694    -4.7448225848
   29      H       2.2525121210    -1.3436757286    -1.3019989244
   30      H       4.2731906457    -0.6862809725     0.0026212032
   31      H       5.3818441464     1.4812699673    -0.3864187852
   32      H       4.5046249371     3.0622453327    -2.1174588037
   33      H       0.4865131420    -0.9325371720    -4.7089934542
 ----------------------------------------------------------------

    8   -1808.4192365354      9.65e-06  Convergence criterion met
 Total energy in the final basis set =    -1808.4192365354
    5   -1808.4098824336      5.51e-06  Convergence criterion met
 Total energy in the final basis set =    -1808.4646602196

                    Orbital Energies (a.u.)
 --------------------------------------------------------------

 Alpha MOs
 -- Occupied --
******** -90.1828 -19.6726 -19.6626 -19.6605 -19.6368 -14.8106 -14.8036
-10.6799 -10.6788 -10.6541 -10.6219 -10.5974 -10.5964 -10.5913 -10.5896
-10.5836 -10.5774 -10.5766 -10.5760 -10.5752 -10.5725  -9.8446  -8.4961
 -7.5689  -7.5622  -7.5619  -6.4183  -6.4179  -6.4172  -1.2644  -1.1951
 -1.1744  -1.1496  -1.0685  -1.0427  -1.0286  -0.9819  -0.9719  -0.9018
 -0.8869  -0.8782  -0.8640  -0.7960  -0.7815  -0.7500  -0.7253  -0.7110
 -0.6909  -0.6762  -0.6551  -0.6289  -0.6240  -0.6100  -0.5942  -0.5837
 -0.5803  -0.5740  -0.5711  -0.5409  -0.5385  -0.5324  -0.5245  -0.5185
 -0.5148  -0.5050  -0.4993  -0.4801  -0.4595  -0.4555  -0.4526  -0.4423
 -0.4390  -0.4293  -0.4251  -0.4164  -0.4127  -0.4096  -0.4007  -0.3962
 -0.3815  -0.3559  -0.3495  -0.3444  -0.3354  -0.3264  -0.3133

          Ground-State Mulliken Net Atomic Charges

     Atom                 Charge (a.u.)
  ----------------------------------------
      1 C                    -3.190171
      2 C                     1.028584
      3 Cl                    0.166950
      4 C                     0.425775
      5 H                     0.294642
      6 C                     0.775982
      7 C                    -0.080232
      8 C                    -0.316920
      9 S                     1.032860
     10 O                    -0.643615
     11 O                    -0.769030
     12 N                    -0.847429
     13 H                     0.493476
     14 H                     0.515010
     15 H                     0.302244
     16 C                     3.233313
     17 N                    -0.515578
     18 C                    -0.014338
     19 C                    -0.803012
     20 C                    -1.400066
     21 O                    -0.821288
     22 C                     0.673808
     23 C                    -0.071389
     24 C                    -0.175448
     25 C                    -1.206990
     26 O                    -0.598971
     27 H                     0.307303
     28 H                     0.528681
     29 H                     0.291986
     30 H                     0.272404
     31 H                     0.267880
     32 H                     0.269274
     33 H                     0.574303
  ----------------------------------------
  Sum of atomic charges =     0.000000

                    Cartesian Multipole Moments
 -----------------------------------------------------------------
    Charge (ESU x 10^10)
                -0.0000
    Dipole Moment (Debye)
         X      -3.2507      Y      -9.7848      Z      -2.5504
       Tot      10.6214
    Quadrupole Moments (Debye-Ang)
        XX    -125.3159     XY      -2.5093     YY    -178.2065
        XZ      35.6571     YZ      13.8559     ZZ    -140.8879

 Total job time:  84.25s(wall), 605.87s(cpu)
        *  Thank you very much for using Q-Chem.  Have a nice day.  *
