 Q-Chem 5.4 (devel), Q-Chem, Inc., Pleasanton, CA (2021)
 Q-Chem 5.4.1 for Intel X86 EM64T Linux

User input:
--------------------------------------------------------------
$molecule
0  1
C -1.5546716193  1.0333913006 -0.8376000252
C -2.6898372008  0.7833317404 -1.6308080536
Cl -4.2915176562  0.8357978455 -0.9534752414
C -2.5758484657  0.4663410415 -2.9687880254
H -3.4603350849  0.2682038432 -3.5662503932
C -1.300798076  0.3890553283 -3.5566570872
C -0.1627604887  0.6489840858 -2.7694470258
C  1.1743724723  0.6226782123 -3.4013955573
C -0.2968637632  0.9621565041 -1.4245402095
S -1.644934809  1.4668651935  0.8844195596
O -0.2662805094  1.5873920747  1.35297247
O -2.5511725076  2.6029033695  1.0424021249
N -2.3101946318  0.22265377  1.7354672311
H -1.7863326229 -0.6479590747  1.6226690445
H -3.3007862101  0.0872016658  1.5297157529
N -1.1584465063  0.1137178676 -4.8863277905
C  0.1003852167 -0.3418077475 -5.4241349251
N  1.1898429626  0.294888744 -4.7202737686
H -1.9852527995 -0.1884309873 -5.3939565921
O  2.204697448  0.9426129764 -2.8016578524
H  0.5923977292  1.1573865345 -0.833846822
H  2.1051906396  0.2663590885 -5.162259732
C  0.1885507412 -1.8853396236 -5.4174143753
H  0.1512881542 -0.0531910338 -6.4769129097
H -0.6596737285 -2.3072165795 -5.9564765575
Cl  0.159352424 -2.5522046331 -3.7641322096
Cl  1.6718918919 -2.4002135068 -6.2699490295
$end

$rem
jobtype sp
exchange M062X
basis 6-31+G*
SMX_GAS_PHASE = TRUE
solvent_method sm12
$end

$smx
solvent water
charges mk
$end
--------------------------------------------------------------

             Standard Nuclear Orientation (Angstroms)
    I     Atom           X                Y                Z
 ----------------------------------------------------------------
    1      C      -1.5546716193     1.0333913006    -0.8376000252
    2      C      -2.6898372008     0.7833317404    -1.6308080536
    3      Cl     -4.2915176562     0.8357978455    -0.9534752414
    4      C      -2.5758484657     0.4663410415    -2.9687880254
    5      H      -3.4603350849     0.2682038432    -3.5662503932
    6      C      -1.3007980760     0.3890553283    -3.5566570872
    7      C      -0.1627604887     0.6489840858    -2.7694470258
    8      C       1.1743724723     0.6226782123    -3.4013955573
    9      C      -0.2968637632     0.9621565041    -1.4245402095
   10      S      -1.6449348090     1.4668651935     0.8844195596
   11      O      -0.2662805094     1.5873920747     1.3529724700
   12      O      -2.5511725076     2.6029033695     1.0424021249
   13      N      -2.3101946318     0.2226537700     1.7354672311
   14      H      -1.7863326229    -0.6479590747     1.6226690445
   15      H      -3.3007862101     0.0872016658     1.5297157529
   16      N      -1.1584465063     0.1137178676    -4.8863277905
   17      C       0.1003852167    -0.3418077475    -5.4241349251
   18      N       1.1898429626     0.2948887440    -4.7202737686
   19      H      -1.9852527995    -0.1884309873    -5.3939565921
   20      O       2.2046974480     0.9426129764    -2.8016578524
   21      H       0.5923977292     1.1573865345    -0.8338468220
   22      H       2.1051906396     0.2663590885    -5.1622597320
   23      C       0.1885507412    -1.8853396236    -5.4174143753
   24      H       0.1512881542    -0.0531910338    -6.4769129097
   25      H      -0.6596737285    -2.3072165795    -5.9564765575
   26      Cl      0.1593524240    -2.5522046331    -3.7641322096
   27      Cl      1.6718918919    -2.4002135068    -6.2699490295
 ----------------------------------------------------------------

    9   -2516.0139169046      5.48e-06  Convergence criterion met
 Total energy in the final basis set =    -2516.0139169046
    5   -2516.0018412882      7.26e-06  Convergence criterion met
 Total energy in the final basis set =    -2516.0564113951

                    Orbital Energies (a.u.)
 --------------------------------------------------------------

 Alpha MOs
 -- Occupied --
********-102.6810-102.6805 -90.1802 -19.6596 -19.6579 -19.6337 -14.8184
-14.8145 -14.8080 -10.6856 -10.6842 -10.6707 -10.6590 -10.6436 -10.6105
-10.5976 -10.5891 -10.5865  -9.8457  -9.8314  -9.8308  -8.4934  -7.5700
 -7.5635  -7.5630  -7.5557  -7.5550  -7.5488  -7.5485  -7.5483  -7.5480
 -6.4157  -6.4153  -6.4145  -1.2612  -1.1838  -1.1464  -1.1248  -1.0480
 -1.0381  -1.0219  -1.0144  -0.9671  -0.9326  -0.9029  -0.8770  -0.8355
 -0.7729  -0.7600  -0.7368  -0.7237  -0.6809  -0.6498  -0.6460  -0.6224
 -0.6161  -0.5969  -0.5894  -0.5784  -0.5601  -0.5526  -0.5437  -0.5388
 -0.5343  -0.5179  -0.5099  -0.5087  -0.4957  -0.4828  -0.4529  -0.4470
 -0.4400  -0.4230  -0.4146  -0.4143  -0.4094  -0.4021  -0.3987  -0.3920
 -0.3840  -0.3809  -0.3777  -0.3618  -0.3480  -0.3314  -0.2876

          Ground-State Mulliken Net Atomic Charges

     Atom                 Charge (a.u.)
  ----------------------------------------
      1 C                    -3.808638
      2 C                     1.305563
      3 Cl                    0.221001
      4 C                    -0.390895
      5 H                     0.305370
      6 C                     1.894367
      7 C                     0.857196
      8 C                    -0.138764
      9 C                    -0.663638
     10 S                     1.060844
     11 O                    -0.786426
     12 O                    -0.619888
     13 N                    -0.824577
     14 H                     0.514196
     15 H                     0.492975
     16 N                    -0.395503
     17 C                     0.834944
     18 N                    -0.593296
     19 H                     0.527305
     20 O                    -0.868457
     21 H                     0.288356
     22 H                     0.506434
     23 C                    -0.015262
     24 H                     0.318041
     25 H                     0.353821
     26 Cl                   -0.196839
     27 Cl                   -0.178230
  ----------------------------------------
  Sum of atomic charges =    -0.000001

                    Cartesian Multipole Moments
 -----------------------------------------------------------------
    Charge (ESU x 10^10)
                -0.0000
    Dipole Moment (Debye)
         X      -5.5373      Y      -7.1401      Z     -11.4220
       Tot      14.5638
    Quadrupole Moments (Debye-Ang)
        XX    -137.6569     XY      11.0030     YY    -155.5193
        XZ      21.5117     YZ      -4.0633     ZZ     -76.5165

 Total job time:  57.97s(wall), 442.43s(cpu)
        *  Thank you very much for using Q-Chem.  Have a nice day.  *
