 Q-Chem 5.4 (devel), Q-Chem, Inc., Pleasanton, CA (2021)
 Q-Chem 5.4.1 for Intel X86 EM64T Linux

User input:
--------------------------------------------------------------
$molecule
0  1
S -2.2780383065  1.2992464667 -1.0133720466
O -2.2041327799  2.7572673819 -0.9114748668
O -3.547273559  0.6268491775 -0.7252533771
N -1.1699975162  0.6996062522  0.0467865329
H -0.2437345431  1.105146176 -0.1015480054
H -1.1186474427 -0.3207715252  0.0077125163
C -1.8416705469  0.810978702 -2.699117307
N -0.5243911965  1.2973846634 -3.0628679576
C -0.2954337865  1.1843380047 -4.5316066935
C  0.2574001559 -0.2065117831 -4.6825461418
C  0.6723782894 -0.6075300669 -3.4212281469
O  0.4139659759  0.3618006115 -2.4663581526
C  0.453459343 -1.0449054576 -5.7697559202
C  1.0728807105 -2.2823790783 -5.5527083863
C  1.4868378952 -2.6585026739 -4.2725103845
C  1.2906038805 -1.819525065 -3.1690217264
H -2.5983275283  1.2964616298 -3.3217123092
H -1.9537322181 -0.2790631452 -2.7519186234
H -1.2288260201  1.3683875114 -5.0648015255
H  0.1381070653 -0.7479155695 -6.7657790992
H  1.2325406458 -2.9562973364 -6.3886180423
H  1.9634244171 -3.6228802165 -4.1239476557
H  1.6019184987 -2.1011417774 -2.1684483949
H  0.4391375663  1.9381951179 -4.8286492863
$end

$rem
jobtype sp
exchange M062X
basis 6-31+G*
SMX_GAS_PHASE = TRUE
solvent_method sm12
$end

$smx
solvent water
charges mk
$end
--------------------------------------------------------------

             Standard Nuclear Orientation (Angstroms)
    I     Atom           X                Y                Z
 ----------------------------------------------------------------
    1      S      -2.2780383065     1.2992464667    -1.0133720466
    2      O      -2.2041327799     2.7572673819    -0.9114748668
    3      O      -3.5472735590     0.6268491775    -0.7252533771
    4      N      -1.1699975162     0.6996062522     0.0467865329
    5      H      -0.2437345431     1.1051461760    -0.1015480054
    6      H      -1.1186474427    -0.3207715252     0.0077125163
    7      C      -1.8416705469     0.8109787020    -2.6991173070
    8      N      -0.5243911965     1.2973846634    -3.0628679576
    9      C      -0.2954337865     1.1843380047    -4.5316066935
   10      C       0.2574001559    -0.2065117831    -4.6825461418
   11      C       0.6723782894    -0.6075300669    -3.4212281469
   12      O       0.4139659759     0.3618006115    -2.4663581526
   13      C       0.4534593430    -1.0449054576    -5.7697559202
   14      C       1.0728807105    -2.2823790783    -5.5527083863
   15      C       1.4868378952    -2.6585026739    -4.2725103845
   16      C       1.2906038805    -1.8195250650    -3.1690217264
   17      H      -2.5983275283     1.2964616298    -3.3217123092
   18      H      -1.9537322181    -0.2790631452    -2.7519186234
   19      H      -1.2288260201     1.3683875114    -5.0648015255
   20      H       0.1381070653    -0.7479155695    -6.7657790992
   21      H       1.2325406458    -2.9562973364    -6.3886180423
   22      H       1.9634244171    -3.6228802165    -4.1239476557
   23      H       1.6019184987    -2.1011417774    -2.1684483949
   24      H       0.4391375663     1.9381951179    -4.8286492863
 ----------------------------------------------------------------

    8   -1043.8121806052      6.31e-06  Convergence criterion met
 Total energy in the final basis set =    -1043.8121806052
    5   -1043.8067156384      3.56e-06  Convergence criterion met
 Total energy in the final basis set =    -1043.8451253690

                    Orbital Energies (a.u.)
 --------------------------------------------------------------

 Alpha MOs
 -- Occupied --
-90.1707 -19.7200 -19.6579 -19.6567 -14.8507 -14.8045 -10.6305 -10.6238
-10.6034 -10.5743 -10.5724 -10.5707 -10.5698 -10.5636  -8.4855  -6.4077
 -6.4072  -6.4061  -1.2592  -1.2488  -1.1429  -1.0352  -1.0163  -0.9785
 -0.8974  -0.8563  -0.8434  -0.7580  -0.7249  -0.7094  -0.6951  -0.6374
 -0.6198  -0.6078  -0.6012  -0.5846  -0.5802  -0.5516  -0.5384  -0.5269
 -0.5160  -0.5121  -0.4944  -0.4813  -0.4665  -0.4377  -0.4347  -0.4294
 -0.4202  -0.4149  -0.3991  -0.3970  -0.3798  -0.3431  -0.3203  -0.2922

          Ground-State Mulliken Net Atomic Charges

     Atom                 Charge (a.u.)
  ----------------------------------------
      1 S                     1.138159
      2 O                    -0.809625
      3 O                    -0.773955
      4 N                    -0.971096
      5 H                     0.511168
      6 H                     0.530971
      7 C                    -0.302736
      8 N                    -0.410679
      9 C                     0.172655
     10 C                     1.373404
     11 C                    -0.420005
     12 O                    -0.198448
     13 C                    -1.065073
     14 C                    -0.384425
     15 C                    -0.697308
     16 C                     0.023452
     17 H                     0.322367
     18 H                     0.324427
     19 H                     0.290586
     20 H                     0.271966
     21 H                     0.251861
     22 H                     0.258122
     23 H                     0.277061
     24 H                     0.287151
  ----------------------------------------
  Sum of atomic charges =     0.000000

                    Cartesian Multipole Moments
 -----------------------------------------------------------------
    Charge (ESU x 10^10)
                -0.0000
    Dipole Moment (Debye)
         X       4.7755      Y      -4.6768      Z      -5.8262
       Tot       8.8669
    Quadrupole Moments (Debye-Ang)
        XX    -109.7080     XY       5.7273     YY     -96.8184
        XZ       5.7804     YZ       0.3961     ZZ     -53.3322

 Total job time:  27.95s(wall), 207.52s(cpu)
        *  Thank you very much for using Q-Chem.  Have a nice day.  *
