 Q-Chem 5.4 (devel), Q-Chem, Inc., Pleasanton, CA (2021)
 Q-Chem 5.4.1 for Intel X86 EM64T Linux

User input:
--------------------------------------------------------------
$molecule
0  1
C -1.5563543333  1.194166938 -1.0416019345
C -2.5219575837  1.6796559191 -1.9329637047
Cl -3.6700338505  2.8912700074 -1.4515238467
C -2.5721192671  1.1961379435 -3.2346167729
H -3.3204006079  1.5783172425 -3.921012374
C -1.6663398458  0.2201634104 -3.6463859818
C -0.7159355568 -0.2749524734 -2.7583208367
C -0.6529161527  0.2277275485 -1.4583416752
S -1.4878961498  1.7610546297  0.6579954604
O -1.0913419431  3.1681092623  0.6549460674
O -2.7406826348  1.3709696317  1.3021197119
N -0.2965413566  0.9369330481  1.419906942
H  0.644898191  1.1538617881  1.087832121
H -0.4608269971 -0.0696499453  1.4972936959
H  0.1082947566 -0.1279801832 -0.7743563354
H -1.7125902899 -0.1639484482 -4.6610260035
C  0.2479603657 -1.3167161031 -3.2352486309
N  0.5994780538 -2.2966415812 -2.3646107886
O  0.7313305577 -1.2698941252 -4.3692261462
N -0.1414363674 -2.576794759 -1.2334917567
C -0.9914768244 -3.7931340642 -1.2911509322
C -1.3416110202 -4.0083490313  0.1929910819
C -0.1662595545 -3.3840835359  0.9103699472
C  0.5260397779 -2.5686759247  0.0070423044
C -2.1764462579 -3.600157189 -2.2148215539
C  1.6482942653 -1.8371661099  0.3754605289
C  2.0663395418 -1.9245958378  1.7103123191
C  1.3812871329 -2.7209043657  2.6281119512
C  0.2570769245 -3.4599145856  2.2277534305
H  1.2375524056 -3.0166375947 -2.712204735
H -0.3641451156 -4.6279509903 -1.6443063929
H -1.4914373492 -5.0639102799  0.4311278558
H -2.2662097902 -3.4680060464  0.4378682295
H -1.850669169 -3.3903216452 -3.2400120784
H -2.8006294575 -2.7697483518 -1.8668472378
H -2.784110106 -4.5103640861 -2.2353652719
H  2.180960652 -1.2205287758 -0.3439797397
H  2.9407059205 -1.3645461479  2.0295067313
H  1.7240102766 -2.7762510713  3.6569487794
H -0.2714812409 -4.0871361173  2.9412775719
$end

$rem
jobtype sp
exchange M062X
basis 6-31+G*
SMX_GAS_PHASE = TRUE
solvent_method sm12
$end

$smx
solvent water
charges mk
$end
--------------------------------------------------------------

             Standard Nuclear Orientation (Angstroms)
    I     Atom           X                Y                Z
 ----------------------------------------------------------------
    1      C      -1.5563543333     1.1941669380    -1.0416019345
    2      C      -2.5219575837     1.6796559191    -1.9329637047
    3      Cl     -3.6700338505     2.8912700074    -1.4515238467
    4      C      -2.5721192671     1.1961379435    -3.2346167729
    5      H      -3.3204006079     1.5783172425    -3.9210123740
    6      C      -1.6663398458     0.2201634104    -3.6463859818
    7      C      -0.7159355568    -0.2749524734    -2.7583208367
    8      C      -0.6529161527     0.2277275485    -1.4583416752
    9      S      -1.4878961498     1.7610546297     0.6579954604
   10      O      -1.0913419431     3.1681092623     0.6549460674
   11      O      -2.7406826348     1.3709696317     1.3021197119
   12      N      -0.2965413566     0.9369330481     1.4199069420
   13      H       0.6448981910     1.1538617881     1.0878321210
   14      H      -0.4608269971    -0.0696499453     1.4972936959
   15      H       0.1082947566    -0.1279801832    -0.7743563354
   16      H      -1.7125902899    -0.1639484482    -4.6610260035
   17      C       0.2479603657    -1.3167161031    -3.2352486309
   18      N       0.5994780538    -2.2966415812    -2.3646107886
   19      O       0.7313305577    -1.2698941252    -4.3692261462
   20      N      -0.1414363674    -2.5767947590    -1.2334917567
   21      C      -0.9914768244    -3.7931340642    -1.2911509322
   22      C      -1.3416110202    -4.0083490313     0.1929910819
   23      C      -0.1662595545    -3.3840835359     0.9103699472
   24      C       0.5260397779    -2.5686759247     0.0070423044
   25      C      -2.1764462579    -3.6001571890    -2.2148215539
   26      C       1.6482942653    -1.8371661099     0.3754605289
   27      C       2.0663395418    -1.9245958378     1.7103123191
   28      C       1.3812871329    -2.7209043657     2.6281119512
   29      C       0.2570769245    -3.4599145856     2.2277534305
   30      H       1.2375524056    -3.0166375947    -2.7122047350
   31      H      -0.3641451156    -4.6279509903    -1.6443063929
   32      H      -1.4914373492    -5.0639102799     0.4311278558
   33      H      -2.2662097902    -3.4680060464     0.4378682295
   34      H      -1.8506691690    -3.3903216452    -3.2400120784
   35      H      -2.8006294575    -2.7697483518    -1.8668472378
   36      H      -2.7841101060    -4.5103640861    -2.2353652719
   37      H       2.1809606520    -1.2205287758    -0.3439797397
   38      H       2.9407059205    -1.3645461479     2.0295067313
   39      H       1.7240102766    -2.7762510713     3.6569487794
   40      H      -0.2714812409    -4.0871361173     2.9412775719
 ----------------------------------------------------------------

    8   -1867.1086769378      9.60e-06  Convergence criterion met
 Total energy in the final basis set =    -1867.1086769378
    5   -1867.1007937057      4.73e-06  Convergence criterion met
 Total energy in the final basis set =    -1867.1421781834

                    Orbital Energies (a.u.)
 --------------------------------------------------------------

 Alpha MOs
 -- Occupied --
******** -90.1834 -19.6607 -19.6603 -19.6391 -14.8376 -14.8227 -14.8123
-10.6854 -10.6554 -10.6211 -10.6018 -10.5983 -10.5969 -10.5963 -10.5919
-10.5910 -10.5663 -10.5650 -10.5642 -10.5641 -10.5595 -10.5576 -10.5408
 -9.8405  -8.4964  -7.5650  -7.5580  -7.5578  -6.4189  -6.4181  -6.4174
 -1.2629  -1.1941  -1.1474  -1.1421  -1.0434  -1.0302  -1.0100  -0.9713
 -0.9492  -0.9016  -0.8905  -0.8733  -0.8595  -0.8325  -0.7830  -0.7803
 -0.7522  -0.7289  -0.7106  -0.6919  -0.6869  -0.6792  -0.6434  -0.6263
 -0.6247  -0.6128  -0.5899  -0.5858  -0.5772  -0.5650  -0.5617  -0.5456
 -0.5399  -0.5339  -0.5288  -0.5184  -0.5099  -0.5052  -0.4942  -0.4867
 -0.4763  -0.4743  -0.4619  -0.4513  -0.4494  -0.4415  -0.4360  -0.4312
 -0.4262  -0.4234  -0.4118  -0.4110  -0.4045  -0.4009  -0.3927  -0.3867
 -0.3760  -0.3630  -0.3442  -0.3434  -0.3252  -0.3141  -0.2709

          Ground-State Mulliken Net Atomic Charges

     Atom                 Charge (a.u.)
  ----------------------------------------
      1 C                    -2.205627
      2 C                    -0.614526
      3 Cl                    0.048236
      4 C                     0.752220
      5 H                     0.290661
      6 C                    -0.016360
      7 C                     0.569083
      8 C                     0.636485
      9 S                     1.020078
     10 O                    -0.669758
     11 O                    -0.671354
     12 N                    -1.027232
     13 H                     0.547885
     14 H                     0.554294
     15 H                     0.282623
     16 H                     0.296970
     17 C                     0.542901
     18 N                    -0.428369
     19 O                    -0.725439
     20 N                     0.108741
     21 C                     0.433678
     22 C                    -0.334758
     23 C                     1.479411
     24 C                    -0.573089
     25 C                    -0.741481
     26 C                    -0.174552
     27 C                    -0.423368
     28 C                    -0.612580
     29 C                    -1.352889
     30 H                     0.500000
     31 H                     0.243328
     32 H                     0.266503
     33 H                     0.260914
     34 H                     0.236570
     35 H                     0.235241
     36 H                     0.242247
     37 H                     0.284022
     38 H                     0.249990
     39 H                     0.235716
     40 H                     0.253584
  ----------------------------------------
  Sum of atomic charges =     0.000000

                    Cartesian Multipole Moments
 -----------------------------------------------------------------
    Charge (ESU x 10^10)
                 0.0000
    Dipole Moment (Debye)
         X       2.4662      Y      -9.4673      Z      -0.8357
       Tot       9.8188
    Quadrupole Moments (Debye-Ang)
        XX    -159.0116     XY      16.3517     YY    -151.3755
        XZ      21.2885     YZ      -7.4549     ZZ    -164.5369

 Total job time:  106.76s(wall), 812.05s(cpu)
        *  Thank you very much for using Q-Chem.  Have a nice day.  *
