 Q-Chem 5.4 (devel), Q-Chem, Inc., Pleasanton, CA (2021)
 Q-Chem 5.4.1 for Intel X86 EM64T Linux

User input:
--------------------------------------------------------------
$molecule
0  1
C -1.6321618895  1.0851711847 -0.9007933789
C -2.7901117729  0.5984521024 -1.5525963191
C -4.149443618  0.5259019794 -0.8910225429
C -2.7210945351  0.1771272049 -2.8651907278
H -3.605783696 -0.1941086282 -3.372220453
C -1.4999045505  0.2093700462 -3.568140748
C -0.355126547  0.6966111169 -2.9146896754
C  0.9074247522  0.8573258338 -3.6828305754
C -0.4316046949  1.1290460131 -1.5957543086
S -1.5794131576  1.6748886602  0.7847382408
O -0.2967220974  2.3565556926  0.947600638
O -2.8136414969  2.4040051603  1.0624551941
N -1.5339341733  0.3997845073  1.8288271048
H -0.6961853356 -0.1694426011  1.694900983
H -2.376980138 -0.173766847  1.788059821
N -1.4160574562 -0.176672209 -4.8775003192
C -0.1161405388 -0.6510128561 -5.3328861195
N  0.8757850853  0.3407119462 -4.9310928202
H -2.2070190226 -0.7108391699 -5.2310630498
F -4.9823591268 -0.2888080582 -1.5551112968
F -4.7528616715  1.7228476535 -0.8321573463
F -4.080334552  0.0479222884  0.3670893531
H  1.7436007209  0.3743862387 -5.4612862994
C -0.0909895049 -0.8304185808 -6.8462806801
C -1.0808292395 -1.8773527175 -7.2973634479
C -0.7936999331 -3.2379280594 -7.1309751916
H  0.1632553732 -3.5333088332 -6.7055628824
C -1.7164939014 -4.2103233372 -7.5123409765
H -1.4780817738 -5.2621196006 -7.3818137052
C -2.9422671209 -3.8336865177 -8.0659199656
H -3.6605498407 -4.5910164052 -8.366556579
C -3.2373169573 -2.4815428267 -8.2355682395
H -4.1871130447 -2.1801964378 -8.6681778873
C -2.3109131254 -1.5097406333 -7.851928337
H -2.5413730626 -0.4553650468 -7.9889602893
H  0.1150815757 -1.6119748269 -4.8474197099
H  0.9262046805 -1.1299182001 -7.1226371829
H -0.3059057502  0.1343116813 -7.3175328102
O  1.8813242654  1.4760281688 -3.2371346018
H  0.4620948717  1.5182549142 -1.1190098684
$end

$rem
jobtype sp
exchange M062X
basis 6-31+G*
SMX_GAS_PHASE = TRUE
solvent_method sm12
$end

$smx
solvent water
charges mk
$end
--------------------------------------------------------------

             Standard Nuclear Orientation (Angstroms)
    I     Atom           X                Y                Z
 ----------------------------------------------------------------
    1      C      -1.6321618895     1.0851711847    -0.9007933789
    2      C      -2.7901117729     0.5984521024    -1.5525963191
    3      C      -4.1494436180     0.5259019794    -0.8910225429
    4      C      -2.7210945351     0.1771272049    -2.8651907278
    5      H      -3.6057836960    -0.1941086282    -3.3722204530
    6      C      -1.4999045505     0.2093700462    -3.5681407480
    7      C      -0.3551265470     0.6966111169    -2.9146896754
    8      C       0.9074247522     0.8573258338    -3.6828305754
    9      C      -0.4316046949     1.1290460131    -1.5957543086
   10      S      -1.5794131576     1.6748886602     0.7847382408
   11      O      -0.2967220974     2.3565556926     0.9476006380
   12      O      -2.8136414969     2.4040051603     1.0624551941
   13      N      -1.5339341733     0.3997845073     1.8288271048
   14      H      -0.6961853356    -0.1694426011     1.6949009830
   15      H      -2.3769801380    -0.1737668470     1.7880598210
   16      N      -1.4160574562    -0.1766722090    -4.8775003192
   17      C      -0.1161405388    -0.6510128561    -5.3328861195
   18      N       0.8757850853     0.3407119462    -4.9310928202
   19      H      -2.2070190226    -0.7108391699    -5.2310630498
   20      F      -4.9823591268    -0.2888080582    -1.5551112968
   21      F      -4.7528616715     1.7228476535    -0.8321573463
   22      F      -4.0803345520     0.0479222884     0.3670893531
   23      H       1.7436007209     0.3743862387    -5.4612862994
   24      C      -0.0909895049    -0.8304185808    -6.8462806801
   25      C      -1.0808292395    -1.8773527175    -7.2973634479
   26      C      -0.7936999331    -3.2379280594    -7.1309751916
   27      H       0.1632553732    -3.5333088332    -6.7055628824
   28      C      -1.7164939014    -4.2103233372    -7.5123409765
   29      H      -1.4780817738    -5.2621196006    -7.3818137052
   30      C      -2.9422671209    -3.8336865177    -8.0659199656
   31      H      -3.6605498407    -4.5910164052    -8.3665565790
   32      C      -3.2373169573    -2.4815428267    -8.2355682395
   33      H      -4.1871130447    -2.1801964378    -8.6681778873
   34      C      -2.3109131254    -1.5097406333    -7.8519283370
   35      H      -2.5413730626    -0.4553650468    -7.9889602893
   36      H       0.1150815757    -1.6119748269    -4.8474197099
   37      H       0.9262046805    -1.1299182001    -7.1226371829
   38      H      -0.3059057502     0.1343116813    -7.3175328102
   39      O       1.8813242654     1.4760281688    -3.2371346018
   40      H       0.4620948717     1.5182549142    -1.1190098684
 ----------------------------------------------------------------

    8   -1705.2393973534      9.51e-06  Convergence criterion met
 Total energy in the final basis set =    -1705.2393973534
    5   -1705.2239989950      6.72e-06  Convergence criterion met
 Total energy in the final basis set =    -1705.2733350592

                    Orbital Energies (a.u.)
 --------------------------------------------------------------

 Alpha MOs
 -- Occupied --
-90.1807 -25.3222 -25.3214 -25.3135 -19.6606 -19.6593 -19.6328 -14.8077
-14.8069 -14.8069 -10.8361 -10.6808 -10.6480 -10.6406 -10.6263 -10.6170
-10.5988 -10.5955 -10.5909 -10.5746 -10.5679 -10.5649 -10.5647 -10.5639
-10.5638 -10.5631  -8.4941  -6.4163  -6.4160  -6.4151  -1.4884  -1.3964
 -1.3915  -1.2630  -1.1803  -1.1484  -1.1127  -1.0389  -1.0362  -1.0044
 -0.9759  -0.9288  -0.9096  -0.8807  -0.8532  -0.8434  -0.8290  -0.7785
 -0.7723  -0.7430  -0.7308  -0.7114  -0.7064  -0.7040  -0.7011  -0.6789
 -0.6736  -0.6379  -0.6275  -0.6223  -0.6145  -0.5996  -0.5974  -0.5914
 -0.5881  -0.5774  -0.5574  -0.5536  -0.5523  -0.5496  -0.5386  -0.5357
 -0.5309  -0.5292  -0.5256  -0.5218  -0.5087  -0.5008  -0.4957  -0.4874
 -0.4797  -0.4755  -0.4545  -0.4473  -0.4395  -0.4380  -0.4242  -0.4205
 -0.4101  -0.4068  -0.4022  -0.3936  -0.3857  -0.3608  -0.3526  -0.3427
 -0.3181  -0.3120  -0.2908

          Ground-State Mulliken Net Atomic Charges

     Atom                 Charge (a.u.)
  ----------------------------------------
      1 C                    -2.913451
      2 C                     0.232921
      3 C                     1.165981
      4 C                    -0.846099
      5 H                     0.311034
      6 C                     0.922937
      7 C                     0.999295
      8 C                     1.070605
      9 C                    -1.174537
     10 S                     1.637303
     11 O                    -0.645077
     12 O                    -0.773532
     13 N                    -0.888999
     14 H                     0.519977
     15 H                     0.513055
     16 N                    -0.298362
     17 C                     0.084422
     18 N                    -0.411350
     19 H                     0.481285
     20 F                    -0.304356
     21 F                    -0.286863
     22 F                    -0.329908
     23 H                     0.512264
     24 C                     0.722174
     25 C                    -0.055785
     26 C                     0.324486
     27 H                     0.253017
     28 C                    -0.895276
     29 H                     0.247365
     30 C                    -0.822681
     31 H                     0.246779
     32 C                    -0.687650
     33 H                     0.249826
     34 C                     0.371069
     35 H                     0.257349
     36 H                     0.253534
     37 H                     0.272912
     38 H                     0.266241
     39 O                    -0.881816
     40 H                     0.299205
  ----------------------------------------
  Sum of atomic charges =    -0.000709

                    Cartesian Multipole Moments
 -----------------------------------------------------------------
    Charge (ESU x 10^10)
                -0.0034
    Dipole Moment (Debye)
         X      -0.8998      Y     -10.8026      Z     -10.5432
       Tot      15.1217
    Quadrupole Moments (Debye-Ang)
        XX    -167.3962     XY       8.5638     YY    -169.8186
        XZ      19.6156     YZ      10.5868     ZZ     -95.9869

 Total job time:  102.42s(wall), 760.30s(cpu)
        *  Thank you very much for using Q-Chem.  Have a nice day.  *
