 Q-Chem 5.4 (devel), Q-Chem, Inc., Pleasanton, CA (2021)
 Q-Chem 5.4.1 for Intel X86 EM64T Linux

User input:
--------------------------------------------------------------
$molecule
0  1
C -1.5618709318  1.0829905193 -1.1332499857
C -2.8205727784  0.9289782226 -1.7320162407
C -2.9347296007  0.1341806172 -2.8767666992
C -1.8181699601 -0.4995731204 -3.4148698735
C -0.5910284488 -0.3273317038 -2.7949145311
C -0.4394924132  0.4564283916 -1.6558380023
S -1.3866443965  2.1163165421  0.333164674
O -1.7211106755  3.4817054289 -0.0582158386
O -2.1226407623  1.4667968952  1.412910144
N  0.1842998652  2.1195559327  0.7639309355
H  0.8096888778  2.5767709799  0.0991262459
H  0.5384167546  1.2252126819  1.1055492276
Cl -4.2170904604  1.7031579575 -1.0815237892
Cl -4.4620127565 -0.079702175 -3.6585488172
S  0.8374831185 -1.168517593 -3.4598957219
H -1.9174834553 -1.1087117877 -4.3083771515
H  0.5375376436  0.5784121045 -1.1976558365
O  0.5538298842 -1.4637601002 -4.860401244
O  2.0097815098 -0.379217275 -3.0952203868
N  0.9914808316 -2.6148766733 -2.6949068443
H  0.1964928518 -3.2336875375 -2.8672669876
H  1.1674463026 -2.5087633074 -1.6935222768
$end

$rem
jobtype sp
exchange M062X
basis 6-31+G*
SMX_GAS_PHASE = TRUE
solvent_method sm12
$end

$smx
solvent water
charges mk
$end
--------------------------------------------------------------

             Standard Nuclear Orientation (Angstroms)
    I     Atom           X                Y                Z
 ----------------------------------------------------------------
    1      C      -1.5618709318     1.0829905193    -1.1332499857
    2      C      -2.8205727784     0.9289782226    -1.7320162407
    3      C      -2.9347296007     0.1341806172    -2.8767666992
    4      C      -1.8181699601    -0.4995731204    -3.4148698735
    5      C      -0.5910284488    -0.3273317038    -2.7949145311
    6      C      -0.4394924132     0.4564283916    -1.6558380023
    7      S      -1.3866443965     2.1163165421     0.3331646740
    8      O      -1.7211106755     3.4817054289    -0.0582158386
    9      O      -2.1226407623     1.4667968952     1.4129101440
   10      N       0.1842998652     2.1195559327     0.7639309355
   11      H       0.8096888778     2.5767709799     0.0991262459
   12      H       0.5384167546     1.2252126819     1.1055492276
   13      Cl     -4.2170904604     1.7031579575    -1.0815237892
   14      Cl     -4.4620127565    -0.0797021750    -3.6585488172
   15      S       0.8374831185    -1.1685175930    -3.4598957219
   16      H      -1.9174834553    -1.1087117877    -4.3083771515
   17      H       0.5375376436     0.5784121045    -1.1976558365
   18      O       0.5538298842    -1.4637601002    -4.8604012440
   19      O       2.0097815098    -0.3792172750    -3.0952203868
   20      N       0.9914808316    -2.6148766733    -2.6949068443
   21      H       0.1964928518    -3.2336875375    -2.8672669876
   22      H       1.1674463026    -2.5087633074    -1.6935222768
 ----------------------------------------------------------------

    8   -2358.8798618975      7.03e-06  Convergence criterion met
 Total energy in the final basis set =    -2358.8798618975
    5   -2358.8712836140      4.49e-06  Convergence criterion met
 Total energy in the final basis set =    -2358.9154497134

                    Orbital Energies (a.u.)
 --------------------------------------------------------------

 Alpha MOs
 -- Occupied --
********-102.6984 -90.1886 -90.1849 -19.6660 -19.6652 -19.6649 -19.6639
-14.8156 -14.8109 -10.6747 -10.6649 -10.6379 -10.6289 -10.6204 -10.6164
 -9.8511  -9.8477  -8.5015  -8.4983  -7.5757  -7.5722  -7.5686  -7.5680
 -7.5653  -7.5648  -6.4240  -6.4232  -6.4227  -6.4205  -6.4201  -6.4194
 -1.2686  -1.2681  -1.1544  -1.1527  -1.0639  -1.0472  -1.0408  -0.9917
 -0.9886  -0.9080  -0.8758  -0.7966  -0.7837  -0.7282  -0.7096  -0.6681
 -0.6309  -0.6302  -0.6237  -0.6128  -0.6108  -0.5877  -0.5828  -0.5502
 -0.5483  -0.5433  -0.5301  -0.5053  -0.4918  -0.4532  -0.4510  -0.4475
 -0.4434  -0.4321  -0.4236  -0.4228  -0.4155  -0.4105  -0.4082  -0.3999
 -0.3959  -0.3898  -0.3835  -0.3504  -0.3339

          Ground-State Mulliken Net Atomic Charges

     Atom                 Charge (a.u.)
  ----------------------------------------
      1 C                    -2.133147
      2 C                    -1.518486
      3 C                     0.040795
      4 C                    -0.176226
      5 C                    -0.100380
      6 C                     2.640724
      7 S                     1.191391
      8 O                    -0.670267
      9 O                    -0.653342
     10 N                    -0.977564
     11 H                     0.542461
     12 H                     0.542326
     13 Cl                    0.084470
     14 Cl                    0.229485
     15 S                     1.519412
     16 H                     0.326642
     17 H                     0.332664
     18 O                    -0.718423
     19 O                    -0.709022
     20 N                    -0.824770
     21 H                     0.514230
     22 H                     0.517027
  ----------------------------------------
  Sum of atomic charges =     0.000000

                    Cartesian Multipole Moments
 -----------------------------------------------------------------
    Charge (ESU x 10^10)
                 0.0000
    Dipole Moment (Debye)
         X       2.1588      Y      -5.4022      Z       1.1663
       Tot       5.9333
    Quadrupole Moments (Debye-Ang)
        XX    -134.5838     XY      15.6563     YY    -124.9547
        XZ      20.9167     YZ      -2.3448     ZZ    -146.6932

 Total job time:  37.06s(wall), 259.62s(cpu)
        *  Thank you very much for using Q-Chem.  Have a nice day.  *
