 Q-Chem 5.4 (devel), Q-Chem, Inc., Pleasanton, CA (2021)
 Q-Chem 5.4.1 for Intel X86 EM64T Linux

User input:
--------------------------------------------------------------
$molecule
0  1
C -1.492925  0.722182 -0.828774
C -2.621587  0.857188 -1.675789
C -4.024754  1.081545 -1.152194
C -2.476818  0.816108 -3.042933
H -3.339043  0.928844 -3.692309
C -1.210457  0.618241 -3.649592
C -0.10532  0.482707 -2.782778
S  1.512049  0.293339 -3.470787
C -0.244631  0.539161 -1.401198
H  0.632463  0.453654 -0.766045
S -1.535845  0.760686  0.95523
O -0.148802  0.883105  1.398893
O -2.511705  1.761125  1.375604
N -2.058764 -0.690964  1.533297
H -1.425073 -1.450227  1.275705
H -3.016962 -0.903541  1.252393
N -1.09298  0.604663 -4.994534
C  0.140148  0.231185 -5.666141
N  1.305436  0.83658 -5.026001
O  2.442577  1.195533 -2.798066
O  1.847438 -1.127351 -3.542477
H -1.935929  0.689957 -5.552444
F -4.950511  0.831485 -2.088743
F -4.220046  2.34539 -0.748445
F -4.31289  0.276068 -0.111133
H  0.279092 -0.853786 -5.663151
H  0.095072  0.578705 -6.695728
H  1.274936  1.860649 -5.0382
$end

$rem
jobtype sp
exchange M062X
basis 6-31+G*
SMX_GAS_PHASE = TRUE
solvent_method sm12
$end

$smx
solvent water
charges mk
$end
--------------------------------------------------------------

             Standard Nuclear Orientation (Angstroms)
    I     Atom           X                Y                Z
 ----------------------------------------------------------------
    1      C      -1.4929250000     0.7221820000    -0.8287740000
    2      C      -2.6215870000     0.8571880000    -1.6757890000
    3      C      -4.0247540000     1.0815450000    -1.1521940000
    4      C      -2.4768180000     0.8161080000    -3.0429330000
    5      H      -3.3390430000     0.9288440000    -3.6923090000
    6      C      -1.2104570000     0.6182410000    -3.6495920000
    7      C      -0.1053200000     0.4827070000    -2.7827780000
    8      S       1.5120490000     0.2933390000    -3.4707870000
    9      C      -0.2446310000     0.5391610000    -1.4011980000
   10      H       0.6324630000     0.4536540000    -0.7660450000
   11      S      -1.5358450000     0.7606860000     0.9552300000
   12      O      -0.1488020000     0.8831050000     1.3988930000
   13      O      -2.5117050000     1.7611250000     1.3756040000
   14      N      -2.0587640000    -0.6909640000     1.5332970000
   15      H      -1.4250730000    -1.4502270000     1.2757050000
   16      H      -3.0169620000    -0.9035410000     1.2523930000
   17      N      -1.0929800000     0.6046630000    -4.9945340000
   18      C       0.1401480000     0.2311850000    -5.6661410000
   19      N       1.3054360000     0.8365800000    -5.0260010000
   20      O       2.4425770000     1.1955330000    -2.7980660000
   21      O       1.8474380000    -1.1273510000    -3.5424770000
   22      H      -1.9359290000     0.6899570000    -5.5524440000
   23      F      -4.9505110000     0.8314850000    -2.0887430000
   24      F      -4.2200460000     2.3453900000    -0.7484450000
   25      F      -4.3128900000     0.2760680000    -0.1111330000
   26      H       0.2790920000    -0.8537860000    -5.6631510000
   27      H       0.0950720000     0.5787050000    -6.6957280000
   28      H       1.2749360000     1.8606490000    -5.0382000000
 ----------------------------------------------------------------

    8   -1870.1386165530      8.31e-06  Convergence criterion met
 Total energy in the final basis set =    -1870.1386165530
    5   -1870.1257154454      5.50e-06  Convergence criterion met
 Total energy in the final basis set =    -1870.1789880781

                    Orbital Energies (a.u.)
 --------------------------------------------------------------

 Alpha MOs
 -- Occupied --
-90.1828 -90.1822 -25.3227 -25.3223 -25.3142 -19.6681 -19.6655 -19.6616
-19.6591 -14.8189 -14.8173 -14.8083 -10.8373 -10.6566 -10.6432 -10.6300
-10.6201 -10.6161 -10.6122 -10.6013  -8.4972  -8.4954  -6.4195  -6.4189
 -6.4180  -6.4176  -6.4173  -6.4166  -1.4893  -1.3973  -1.3924  -1.2683
 -1.2636  -1.1528  -1.1492  -1.1198  -1.0480  -1.0383  -1.0109  -0.9358
 -0.9040  -0.8499  -0.8207  -0.7877  -0.7698  -0.7417  -0.7200  -0.7121
 -0.7092  -0.6879  -0.6642  -0.6430  -0.6317  -0.6203  -0.6099  -0.6018
 -0.5916  -0.5886  -0.5772  -0.5724  -0.5559  -0.5528  -0.5519  -0.5450
 -0.5391  -0.5303  -0.5281  -0.5262  -0.5028  -0.4895  -0.4740  -0.4396
 -0.4391  -0.4350  -0.4305  -0.4232  -0.4142  -0.4078  -0.4038  -0.4008
 -0.3873  -0.3727  -0.3590  -0.2927

          Ground-State Mulliken Net Atomic Charges

     Atom                 Charge (a.u.)
  ----------------------------------------
      1 C                    -3.378572
      2 C                     0.637865
      3 C                     1.035492
      4 C                     0.043902
      5 H                     0.319295
      6 C                     2.735979
      7 C                    -0.547117
      8 S                     1.353360
      9 C                    -0.736692
     10 H                     0.296719
     11 S                     1.236106
     12 O                    -0.762180
     13 O                    -0.700134
     14 N                    -0.890317
     15 H                     0.515983
     16 H                     0.514373
     17 N                    -0.387040
     18 C                     0.088589
     19 N                    -0.740244
     20 O                    -0.717579
     21 O                    -0.680193
     22 H                     0.540136
     23 F                    -0.297505
     24 F                    -0.293189
     25 F                    -0.329118
     26 H                     0.276424
     27 H                     0.326731
     28 H                     0.538924
  ----------------------------------------
  Sum of atomic charges =     0.000000

                    Cartesian Multipole Moments
 -----------------------------------------------------------------
    Charge (ESU x 10^10)
                -0.0000
    Dipole Moment (Debye)
         X      -5.7055      Y      -2.6507      Z     -12.1529
       Tot      13.6848
    Quadrupole Moments (Debye-Ang)
        XX    -144.6964     XY      10.7341     YY    -133.7245
        XZ      30.7597     YZ     -22.9377     ZZ     -68.3541

 Total job time:  59.71s(wall), 455.60s(cpu)
        *  Thank you very much for using Q-Chem.  Have a nice day.  *
