 Q-Chem 5.4 (devel), Q-Chem, Inc., Pleasanton, CA (2021)
 Q-Chem 5.4.1 for Intel X86 EM64T Linux

User input:
--------------------------------------------------------------
$molecule
0  1
C -1.388714  0.636752 -0.822463
C -2.519577  0.533541 -1.650867
Cl -4.12504  0.535501 -0.990988
C -2.386859  0.418849 -3.021669
H -3.264368  0.353765 -3.656297
C -1.116931  0.398572 -3.618439
C -0.003661  0.475103 -2.764304
S  1.595532  0.260955 -3.447425
C -0.122355  0.597252 -1.383942
H  0.757935  0.66363 -0.750591
S -1.493574  0.833627  0.954636
O -0.117671  0.856991  1.438998
O -2.376884  1.959578  1.236579
N -2.193496 -0.498975  1.606084
H -1.66738 -1.354902  1.418512
H -3.180768 -0.598171  1.366515
N -1.060127  0.349545 -5.007427
C  0.060907  0.589213 -5.592922
N  1.265674  0.840026 -4.979667
O  2.581916  1.139295 -2.832586
O  1.91235 -1.161965 -3.516214
H  0.097453  0.654916 -6.676478
H  2.080957  1.011373 -5.573615
$end

$rem
jobtype sp
exchange M062X
basis 6-31+G*
SMX_GAS_PHASE = TRUE
solvent_method sm12
$end

$smx
solvent water
charges mk
$end
--------------------------------------------------------------

             Standard Nuclear Orientation (Angstroms)
    I     Atom           X                Y                Z
 ----------------------------------------------------------------
    1      C      -1.3887140000     0.6367520000    -0.8224630000
    2      C      -2.5195770000     0.5335410000    -1.6508670000
    3      Cl     -4.1250400000     0.5355010000    -0.9909880000
    4      C      -2.3868590000     0.4188490000    -3.0216690000
    5      H      -3.2643680000     0.3537650000    -3.6562970000
    6      C      -1.1169310000     0.3985720000    -3.6184390000
    7      C      -0.0036610000     0.4751030000    -2.7643040000
    8      S       1.5955320000     0.2609550000    -3.4474250000
    9      C      -0.1223550000     0.5972520000    -1.3839420000
   10      H       0.7579350000     0.6636300000    -0.7505910000
   11      S      -1.4935740000     0.8336270000     0.9546360000
   12      O      -0.1176710000     0.8569910000     1.4389980000
   13      O      -2.3768840000     1.9595780000     1.2365790000
   14      N      -2.1934960000    -0.4989750000     1.6060840000
   15      H      -1.6673800000    -1.3549020000     1.4185120000
   16      H      -3.1807680000    -0.5981710000     1.3665150000
   17      N      -1.0601270000     0.3495450000    -5.0074270000
   18      C       0.0609070000     0.5892130000    -5.5929220000
   19      N       1.2656740000     0.8400260000    -4.9796670000
   20      O       2.5819160000     1.1392950000    -2.8325860000
   21      O       1.9123500000    -1.1619650000    -3.5162140000
   22      H       0.0974530000     0.6549160000    -6.6764780000
   23      H       2.0809570000     1.0113730000    -5.5736150000
 ----------------------------------------------------------------

    8   -1991.5481945166      7.61e-06  Convergence criterion met
 Total energy in the final basis set =    -1991.5481945166
    5   -1991.5405912120      5.03e-06  Convergence criterion met
 Total energy in the final basis set =    -1991.5844992693

                    Orbital Energies (a.u.)
 --------------------------------------------------------------

 Alpha MOs
 -- Occupied --
******** -90.1995 -90.1871 -19.6777 -19.6754 -19.6659 -19.6637 -14.8501
-14.8128 -14.7896 -10.6742 -10.6669 -10.6484 -10.6296 -10.6275 -10.6192
-10.5996  -9.8507  -8.5134  -8.5002  -7.5751  -7.5685  -7.5680  -6.4363
 -6.4347  -6.4341  -6.4225  -6.4220  -6.4214  -1.2811  -1.2686  -1.1614
 -1.1535  -1.1323  -1.0567  -1.0435  -1.0287  -0.9836  -0.9145  -0.8969
 -0.8227  -0.7915  -0.7618  -0.7352  -0.6897  -0.6708  -0.6588  -0.6391
 -0.6272  -0.6035  -0.5957  -0.5850  -0.5822  -0.5648  -0.5475  -0.5441
 -0.5292  -0.5174  -0.5001  -0.4905  -0.4602  -0.4566  -0.4458  -0.4305
 -0.4258  -0.4228  -0.4191  -0.4168  -0.4128  -0.4025  -0.3907  -0.3844
 -0.3723  -0.3419  -0.3207

          Ground-State Mulliken Net Atomic Charges

     Atom                 Charge (a.u.)
  ----------------------------------------
      1 C                    -2.295974
      2 C                     1.371578
      3 Cl                    0.287841
      4 C                    -0.831792
      5 H                     0.303404
      6 C                     0.696465
      7 C                    -0.283849
      8 S                     1.537607
      9 C                    -0.353806
     10 H                     0.318953
     11 S                     1.144029
     12 O                    -0.752479
     13 O                    -0.611502
     14 N                    -0.812074
     15 H                     0.517747
     16 H                     0.495136
     17 N                    -0.384041
     18 C                     0.531585
     19 N                    -0.538676
     20 O                    -0.663826
     21 O                    -0.591258
     22 H                     0.333417
     23 H                     0.581515
  ----------------------------------------
  Sum of atomic charges =     0.000000

                    Cartesian Multipole Moments
 -----------------------------------------------------------------
    Charge (ESU x 10^10)
                 0.0000
    Dipole Moment (Debye)
         X      -2.6333      Y      -2.5666      Z      -7.9339
       Tot       8.7446
    Quadrupole Moments (Debye-Ang)
        XX    -120.7432     XY      11.9010     YY    -127.6870
        XZ      -3.5350     YZ     -21.1090     ZZ     -77.7823

 Total job time:  40.06s(wall), 296.41s(cpu)
        *  Thank you very much for using Q-Chem.  Have a nice day.  *
