 Q-Chem 5.4 (devel), Q-Chem, Inc., Pleasanton, CA (2021)
 Q-Chem 5.4.1 for Intel X86 EM64T Linux

User input:
--------------------------------------------------------------
$molecule
0  1
C -1.2979085741  0.6428003054 -0.9241721702
C -2.4688928206  0.9570102516 -1.6362710463
Cl -4.0373016193  1.1578507557 -0.9167928596
C -2.4483261346  1.1187238397 -3.020281718
H -3.364545368  1.3609114793 -3.5475704136
C -1.2552242164  0.9635083501 -3.7059570948
Cl -1.2336819531  1.1706887749 -5.4275640117
C -0.0774629384  0.6407063167 -3.0469116892
H  0.8535555032  0.5124338973 -3.5880603299
C -0.1147260549  0.480872679 -1.6695628169
Cl  1.4064814507  0.0725695951 -0.9265358941
S -1.2296869341  0.4242061009  0.8740823923
O -2.5311372441  0.7410642736  1.4380561363
O -0.6493444897 -0.8904533285  1.1175940679
N -0.1978809773  1.5395597966  1.4906988879
H -0.5182964814  2.498697309  1.3453230997
H  0.7769308519  1.4143786037  1.2192474601
$end

$rem
jobtype sp
exchange M062X
basis 6-31+G*
SMX_GAS_PHASE = TRUE
solvent_method sm12
$end

$smx
solvent water
charges mk
$end
--------------------------------------------------------------

             Standard Nuclear Orientation (Angstroms)
    I     Atom           X                Y                Z
 ----------------------------------------------------------------
    1      C      -1.2979085741     0.6428003054    -0.9241721702
    2      C      -2.4688928206     0.9570102516    -1.6362710463
    3      Cl     -4.0373016193     1.1578507557    -0.9167928596
    4      C      -2.4483261346     1.1187238397    -3.0202817180
    5      H      -3.3645453680     1.3609114793    -3.5475704136
    6      C      -1.2552242164     0.9635083501    -3.7059570948
    7      Cl     -1.2336819531     1.1706887749    -5.4275640117
    8      C      -0.0774629384     0.6407063167    -3.0469116892
    9      H       0.8535555032     0.5124338973    -3.5880603299
   10      C      -0.1147260549     0.4808726790    -1.6695628169
   11      Cl      1.4064814507     0.0725695951    -0.9265358941
   12      S      -1.2296869341     0.4242061009     0.8740823923
   13      O      -2.5311372441     0.7410642736     1.4380561363
   14      O      -0.6493444897    -0.8904533285     1.1175940679
   15      N      -0.1978809773     1.5395597966     1.4906988879
   16      H      -0.5182964814     2.4986973090     1.3453230997
   17      H       0.7769308519     1.4143786037     1.2192474601
 ----------------------------------------------------------------

    8   -2214.6283432378      6.50e-06  Convergence criterion met
 Total energy in the final basis set =    -2214.6283432378
    5   -2214.6248026127      4.80e-06  Convergence criterion met
 Total energy in the final basis set =    -2214.6440116720

                    Orbital Energies (a.u.)
 --------------------------------------------------------------

 Alpha MOs
 -- Occupied --
********-102.6926-102.6907 -90.1888 -19.6633 -19.6627 -14.8123 -10.6674
-10.6671 -10.6557 -10.6368 -10.6024 -10.6011  -9.8499  -9.8422  -9.8401
 -8.5012  -7.5743  -7.5676  -7.5670  -7.5663  -7.5646  -7.5598  -7.5596
 -7.5578  -7.5571  -6.4235  -6.4230  -6.4226  -1.2689  -1.1531  -1.0580
 -1.0418  -1.0070  -1.0025  -0.9361  -0.8840  -0.8622  -0.7734  -0.7249
 -0.7121  -0.6579  -0.6295  -0.6098  -0.5988  -0.5801  -0.5546  -0.5459
 -0.5314  -0.5268  -0.4926  -0.4756  -0.4632  -0.4577  -0.4455  -0.4361
 -0.4209  -0.4177  -0.4032  -0.3996  -0.3930  -0.3852  -0.3780  -0.3333
 -0.3284

          Ground-State Mulliken Net Atomic Charges

     Atom                 Charge (a.u.)
  ----------------------------------------
      1 C                    -3.696667
      2 C                     0.089490
      3 Cl                    0.075748
      4 C                     0.350356
      5 H                     0.294162
      6 C                     0.235165
      7 Cl                    0.239916
      8 C                     0.831359
      9 H                     0.305883
     10 C                     1.305813
     11 Cl                    0.246550
     12 S                     0.912366
     13 O                    -0.706126
     14 O                    -0.648182
     15 N                    -0.836395
     16 H                     0.513798
     17 H                     0.486763
  ----------------------------------------
  Sum of atomic charges =     0.000000

                    Cartesian Multipole Moments
 -----------------------------------------------------------------
    Charge (ESU x 10^10)
                -0.0000
    Dipole Moment (Debye)
         X       3.0408      Y       3.9783      Z      -4.5426
       Tot       6.7608
    Quadrupole Moments (Debye-Ang)
        XX    -106.0053     XY       0.2507     YY     -98.4780
        XZ       8.9263     YZ       1.8584     ZZ    -100.9142

 Total job time:  16.80s(wall), 224.89s(cpu)
        *  Thank you very much for using Q-Chem.  Have a nice day.  *
