 Q-Chem 5.4 (devel), Q-Chem, Inc., Pleasanton, CA (2021)
 Q-Chem 5.4.1 for Intel X86 EM64T Linux

User input:
--------------------------------------------------------------
$molecule
0  1
C -1.4513268562  0.5395519694 -0.8995247718
C -2.5303363052  0.1942925455 -1.7176811447
H -3.4391815917 -0.2167889205 -1.288126559
C -2.4288869361  0.3680687508 -3.0880289765
H -3.257335326  0.094066793 -3.7352775756
C -1.2528492004  0.8937349557 -3.6582808884
N -1.1738947704  1.1157663335 -5.0139901216
C -0.1791872126  1.2394648195 -2.8143090347
H  0.7322393953  1.6393861543 -3.2498538828
C -0.27715687  1.0670227612 -1.4435408882
H  0.5581303662  1.3315152001 -0.8017895588
S -1.6015349723  0.3788349508  0.8474105064
O -2.6010626306 -0.6540573824  1.133525034
O -0.2577105888  0.2528861772  1.4184604097
N -2.221279607  1.781069093  1.4817273972
H -3.1529248289  1.9733887493  1.1072261133
H -1.6019935865  2.5731122422  1.2963876973
H -1.8107940571  0.5808383724 -5.5940553908
H -0.2403064215  1.188953435 -5.402990365
$end

$rem
jobtype sp
exchange M062X
basis 6-31+G*
SMX_GAS_PHASE = TRUE
solvent_method sm12
$end

$smx
solvent water
charges mk
$end
--------------------------------------------------------------

             Standard Nuclear Orientation (Angstroms)
    I     Atom           X                Y                Z
 ----------------------------------------------------------------
    1      C      -1.4513268562     0.5395519694    -0.8995247718
    2      C      -2.5303363052     0.1942925455    -1.7176811447
    3      H      -3.4391815917    -0.2167889205    -1.2881265590
    4      C      -2.4288869361     0.3680687508    -3.0880289765
    5      H      -3.2573353260     0.0940667930    -3.7352775756
    6      C      -1.2528492004     0.8937349557    -3.6582808884
    7      N      -1.1738947704     1.1157663335    -5.0139901216
    8      C      -0.1791872126     1.2394648195    -2.8143090347
    9      H       0.7322393953     1.6393861543    -3.2498538828
   10      C      -0.2771568700     1.0670227612    -1.4435408882
   11      H       0.5581303662     1.3315152001    -0.8017895588
   12      S      -1.6015349723     0.3788349508     0.8474105064
   13      O      -2.6010626306    -0.6540573824     1.1335250340
   14      O      -0.2577105888     0.2528861772     1.4184604097
   15      N      -2.2212796070     1.7810690930     1.4817273972
   16      H      -3.1529248289     1.9733887493     1.1072261133
   17      H      -1.6019935865     2.5731122422     1.2963876973
   18      H      -1.8107940571     0.5808383724    -5.5940553908
   19      H      -0.2403064215     1.1889534350    -5.4029903650
 ----------------------------------------------------------------

    8    -891.2967271530      8.21e-06  Convergence criterion met
 Total energy in the final basis set =     -891.2967271530
    5    -891.2907658817      6.46e-06  Convergence criterion met
 Total energy in the final basis set =     -891.3265402316

                    Orbital Energies (a.u.)
 --------------------------------------------------------------

 Alpha MOs
 -- Occupied --
-90.1714 -19.6548 -19.6547 -14.8020 -14.7806 -10.6191 -10.5918 -10.5838
-10.5837 -10.5681 -10.5680  -8.4852  -6.4075  -6.4071  -6.4060  -1.2542
 -1.1409  -1.0478  -1.0297  -0.9716  -0.8691  -0.8632  -0.7628  -0.7237
 -0.6926  -0.6425  -0.6148  -0.6081  -0.5984  -0.5830  -0.5396  -0.5324
 -0.5151  -0.5077  -0.4888  -0.4750  -0.4317  -0.4242  -0.4220  -0.4169
 -0.3975  -0.3878  -0.3769  -0.3313  -0.2758

          Ground-State Mulliken Net Atomic Charges

     Atom                 Charge (a.u.)
  ----------------------------------------
      1 C                    -1.507174
      2 C                    -0.924046
      3 H                     0.274660
      4 C                     0.747738
      5 H                     0.269833
      6 C                     0.907340
      7 N                    -0.783871
      8 C                     0.759072
      9 H                     0.271422
     10 C                    -0.925192
     11 H                     0.274136
     12 S                     1.102223
     13 O                    -0.771568
     14 O                    -0.771659
     15 N                    -0.818920
     16 H                     0.503043
     17 H                     0.502740
     18 H                     0.445006
     19 H                     0.445217
  ----------------------------------------
  Sum of atomic charges =     0.000000

                    Cartesian Multipole Moments
 -----------------------------------------------------------------
    Charge (ESU x 10^10)
                 0.0000
    Dipole Moment (Debye)
         X      -0.5826      Y       4.3475      Z      -9.0155
       Tot      10.0259
    Quadrupole Moments (Debye-Ang)
        XX     -65.9483     XY      -6.1142     YY     -68.3451
        XZ       8.5476     YZ       2.9314     ZZ     -47.6260

 Total job time:  11.85s(wall), 155.19s(cpu)
        *  Thank you very much for using Q-Chem.  Have a nice day.  *
