 Q-Chem 5.4 (devel), Q-Chem, Inc., Pleasanton, CA (2021)
 Q-Chem 5.4.1 for Intel X86 EM64T Linux

User input:
--------------------------------------------------------------
$molecule
0  1
C -1.5891557604  1.2191213513 -1.2392266694
C -2.7078160642  1.3175737452 -2.1107344423
C -2.7604069043  0.6256071432 -3.2945533425
C -1.6844513204 -0.2035287638 -3.6747256492
C -0.5785965668 -0.2914949702 -2.8640366783
C -0.468024768  0.4219862381 -1.6275269719
S  0.7552846173 -1.316817032 -3.4602623698
O  1.2289384514 -2.1733890973 -2.3711994063
O  0.3075643887 -1.9478432563 -4.7018598445
N  2.0318885725 -0.3574287153 -3.8850679641
H  2.4403558852  0.1366360587 -3.0897968293
H  1.7767187725  0.3009125325 -4.6242329262
C  0.6897543119  0.4057247431 -0.8012441743
C  0.7226538692  1.163090595  0.3418816387
C -0.3901640254  1.929141157  0.7524606837
C -1.550283801  1.9465347134  0.0045987382
N -2.6980333542  2.6810617407  0.3936596202
C -3.8127351245  1.8165285553  0.8089870001
C -2.467329627  3.690081543  1.4219836256
H -3.5291606751  1.9711878077 -1.839087185
H -3.6200879004  0.7185417162 -3.9497870736
H -1.7248144995 -0.7561357203 -4.6069133007
H  1.548499536 -0.2039331618 -1.0546446264
H  1.6139592045  1.1576295039  0.9624204303
H -0.3238864229  2.486302041  1.6798959962
H -3.9894119101  1.0202354434  0.0856107289
H -4.7211687418  2.418860552  0.8936469434
H -3.6037275073  1.3550133655  1.7870488639
H -1.6498711492  4.3521011015  1.1266581728
H -2.2350827  3.2498389551  2.4044366043
H -3.3779467865  4.2853371142  1.5265034074
$end

$rem
jobtype sp
exchange M062X
basis 6-31+G*
SMX_GAS_PHASE = TRUE
solvent_method sm12
$end

$smx
solvent water
charges mk
$end
--------------------------------------------------------------

             Standard Nuclear Orientation (Angstroms)
    I     Atom           X                Y                Z
 ----------------------------------------------------------------
    1      C      -1.5891557604     1.2191213513    -1.2392266694
    2      C      -2.7078160642     1.3175737452    -2.1107344423
    3      C      -2.7604069043     0.6256071432    -3.2945533425
    4      C      -1.6844513204    -0.2035287638    -3.6747256492
    5      C      -0.5785965668    -0.2914949702    -2.8640366783
    6      C      -0.4680247680     0.4219862381    -1.6275269719
    7      S       0.7552846173    -1.3168170320    -3.4602623698
    8      O       1.2289384514    -2.1733890973    -2.3711994063
    9      O       0.3075643887    -1.9478432563    -4.7018598445
   10      N       2.0318885725    -0.3574287153    -3.8850679641
   11      H       2.4403558852     0.1366360587    -3.0897968293
   12      H       1.7767187725     0.3009125325    -4.6242329262
   13      C       0.6897543119     0.4057247431    -0.8012441743
   14      C       0.7226538692     1.1630905950     0.3418816387
   15      C      -0.3901640254     1.9291411570     0.7524606837
   16      C      -1.5502838010     1.9465347134     0.0045987382
   17      N      -2.6980333542     2.6810617407     0.3936596202
   18      C      -3.8127351245     1.8165285553     0.8089870001
   19      C      -2.4673296270     3.6900815430     1.4219836256
   20      H      -3.5291606751     1.9711878077    -1.8390871850
   21      H      -3.6200879004     0.7185417162    -3.9497870736
   22      H      -1.7248144995    -0.7561357203    -4.6069133007
   23      H       1.5484995360    -0.2039331618    -1.0546446264
   24      H       1.6139592045     1.1576295039     0.9624204303
   25      H      -0.3238864229     2.4863020410     1.6798959962
   26      H      -3.9894119101     1.0202354434     0.0856107289
   27      H      -4.7211687418     2.4188605520     0.8936469434
   28      H      -3.6037275073     1.3550133655     1.7870488639
   29      H      -1.6498711492     4.3521011015     1.1266581728
   30      H      -2.2350827000     3.2498389551     2.4044366043
   31      H      -3.3779467865     4.2853371142     1.5265034074
 ----------------------------------------------------------------

    8   -1123.4474113438      9.15e-06  Convergence criterion met
 Total energy in the final basis set =    -1123.4474113438
    5   -1123.4431792683      4.01e-06  Convergence criterion met
 Total energy in the final basis set =    -1123.4714100212

                    Orbital Energies (a.u.)
 --------------------------------------------------------------

 Alpha MOs
 -- Occupied --
-90.1763 -19.6583 -19.6569 -14.8070 -14.7814 -10.6071 -10.6069 -10.5970
-10.5859 -10.5852 -10.5777 -10.5740 -10.5734 -10.5728 -10.5716 -10.5670
-10.5637  -8.4899  -6.4122  -6.4118  -6.4107  -1.2588  -1.1442  -1.0639
 -1.0355  -0.9999  -0.9449  -0.8994  -0.8624  -0.8444  -0.8088  -0.7740
 -0.7559  -0.7209  -0.7102  -0.6783  -0.6335  -0.6199  -0.6035  -0.5985
 -0.5897  -0.5775  -0.5554  -0.5415  -0.5406  -0.5341  -0.5141  -0.5004
 -0.4890  -0.4835  -0.4693  -0.4635  -0.4525  -0.4426  -0.4381  -0.4284
 -0.4205  -0.4173  -0.4153  -0.4024  -0.3991  -0.3788  -0.3627  -0.3182
 -0.3166  -0.2686

          Ground-State Mulliken Net Atomic Charges

     Atom                 Charge (a.u.)
  ----------------------------------------
      1 C                    -0.579905
      2 C                    -0.027745
      3 C                     0.501685
      4 C                    -0.435165
      5 C                    -1.001208
      6 C                     0.228724
      7 S                     1.143459
      8 O                    -0.692722
      9 O                    -0.770859
     10 N                    -0.814827
     11 H                     0.501263
     12 H                     0.511324
     13 C                    -0.505688
     14 C                    -1.045703
     15 C                     0.641939
     16 C                     0.130243
     17 N                    -0.286836
     18 C                    -0.307291
     19 C                    -0.245895
     20 H                     0.275627
     21 H                     0.276671
     22 H                     0.287402
     23 H                     0.254847
     24 H                     0.265689
     25 H                     0.254655
     26 H                     0.239806
     27 H                     0.248115
     28 H                     0.232023
     29 H                     0.234856
     30 H                     0.239005
     31 H                     0.246511
  ----------------------------------------
  Sum of atomic charges =     0.000000

                    Cartesian Multipole Moments
 -----------------------------------------------------------------
    Charge (ESU x 10^10)
                 0.0000
    Dipole Moment (Debye)
         X      -2.7880      Y       7.9062      Z       3.3654
       Tot       9.0337
    Quadrupole Moments (Debye-Ang)
        XX     -91.4245     XY       1.9323     YY    -118.7378
        XZ       3.0805     YZ     -16.0874     ZZ    -113.2967

 Total job time:  45.44s(wall), 347.80s(cpu)
        *  Thank you very much for using Q-Chem.  Have a nice day.  *
