 Q-Chem 5.4 (devel), Q-Chem, Inc., Pleasanton, CA (2021)
 Q-Chem 5.4.1 for Intel X86 EM64T Linux

User input:
--------------------------------------------------------------
$molecule
0  1
C -1.345869  0.719737 -0.828511
C -2.542943  0.776493 -1.537261
H -3.496877  0.725435 -1.021088
C -2.492808  0.908334 -2.923043
H -3.419687  0.959018 -3.487732
C -1.269337  0.980309 -3.597861
C -1.215999  1.137083 -5.092885
C -0.08258  0.914731 -2.853853
H  0.873995  0.970868 -3.367097
C -0.108778  0.783435 -1.470515
H  0.814634  0.737919 -0.900994
S -1.393896  0.496738  0.930228
O -0.151907  1.028678  1.493703
O -2.678622  0.998466  1.420803
N -1.38405 -1.123843  1.264333
H -0.529127 -1.569683  0.924437
H -0.567508  0.377229 -5.540367
H -2.211647  1.051322 -5.534958
H -2.205131 -1.590277  0.872614
H -0.804511  2.116408 -5.360893
$end

$rem
jobtype sp
exchange M062X
basis 6-31+G*
SMX_GAS_PHASE = TRUE
solvent_method sm12
$end

$smx
solvent water
charges mk
$end
--------------------------------------------------------------

             Standard Nuclear Orientation (Angstroms)
    I     Atom           X                Y                Z
 ----------------------------------------------------------------
    1      C      -1.3458690000     0.7197370000    -0.8285110000
    2      C      -2.5429430000     0.7764930000    -1.5372610000
    3      H      -3.4968770000     0.7254350000    -1.0210880000
    4      C      -2.4928080000     0.9083340000    -2.9230430000
    5      H      -3.4196870000     0.9590180000    -3.4877320000
    6      C      -1.2693370000     0.9803090000    -3.5978610000
    7      C      -1.2159990000     1.1370830000    -5.0928850000
    8      C      -0.0825800000     0.9147310000    -2.8538530000
    9      H       0.8739950000     0.9708680000    -3.3670970000
   10      C      -0.1087780000     0.7834350000    -1.4705150000
   11      H       0.8146340000     0.7379190000    -0.9009940000
   12      S      -1.3938960000     0.4967380000     0.9302280000
   13      O      -0.1519070000     1.0286780000     1.4937030000
   14      O      -2.6786220000     0.9984660000     1.4208030000
   15      N      -1.3840500000    -1.1238430000     1.2643330000
   16      H      -0.5291270000    -1.5696830000     0.9244370000
   17      H      -0.5675080000     0.3772290000    -5.5403670000
   18      H      -2.2116470000     1.0513220000    -5.5349580000
   19      H      -2.2051310000    -1.5902770000     0.8726140000
   20      H      -0.8045110000     2.1164080000    -5.3608930000
 ----------------------------------------------------------------

    8    -875.2563670391      8.19e-06  Convergence criterion met
 Total energy in the final basis set =     -875.2563670391
    5    -875.2519028985      5.16e-06  Convergence criterion met
 Total energy in the final basis set =     -875.2774768221

                    Orbital Energies (a.u.)
 --------------------------------------------------------------

 Alpha MOs
 -- Occupied --
-90.1738 -19.6573 -19.6573 -14.8048 -10.6013 -10.5842 -10.5833 -10.5832
-10.5714 -10.5713 -10.5491  -8.4878  -6.4100  -6.4097  -6.4086  -1.2574
 -1.1439  -1.0333  -0.9911  -0.9031  -0.8680  -0.8142  -0.7463  -0.7163
 -0.6826  -0.6435  -0.6155  -0.5956  -0.5604  -0.5510  -0.5325  -0.5285
 -0.5111  -0.4993  -0.4604  -0.4556  -0.4399  -0.4328  -0.4204  -0.4184
 -0.4006  -0.3995  -0.3802  -0.3295  -0.3178

          Ground-State Mulliken Net Atomic Charges

     Atom                 Charge (a.u.)
  ----------------------------------------
      1 C                    -1.927050
      2 C                    -0.120549
      3 H                     0.278968
      4 C                    -0.388758
      5 H                     0.265348
      6 C                     0.373005
      7 C                    -0.112302
      8 C                     0.438099
      9 H                     0.269032
     10 C                     0.003127
     11 H                     0.279227
     12 S                     1.200284
     13 O                    -0.749630
     14 O                    -0.751938
     15 N                    -0.814792
     16 H                     0.506029
     17 H                     0.247374
     18 H                     0.234124
     19 H                     0.506210
     20 H                     0.264191
  ----------------------------------------
  Sum of atomic charges =     0.000000

                    Cartesian Multipole Moments
 -----------------------------------------------------------------
    Charge (ESU x 10^10)
                 0.0000
    Dipole Moment (Debye)
         X       0.3309      Y      -3.7338      Z      -7.7274
       Tot       8.5886
    Quadrupole Moments (Debye-Ang)
        XX     -70.8422     XY       5.3968     YY     -72.9046
        XZ      10.1893     YZ     -10.4569     ZZ     -64.9099

 Total job time:  12.06s(wall), 158.41s(cpu)
        *  Thank you very much for using Q-Chem.  Have a nice day.  *
