 Q-Chem 5.4 (devel), Q-Chem, Inc., Pleasanton, CA (2021)
 Q-Chem 5.4.1 for Intel X86 EM64T Linux

User input:
--------------------------------------------------------------
$molecule
0  1
C -1.2203593352  0.5098599602 -0.8517197984
C -2.3802109995  1.0403818708 -1.4155096396
H -3.240758252  1.2776964786 -0.7979804563
C -2.4250097438  1.2546148033 -2.789024322
H -3.3073049009  1.6585015038 -3.2737256722
C -1.3031943783  0.9319182987 -3.5388214936
C -0.141236883  0.4062183973 -2.9927002493
H  0.7027710937  0.1688185569 -3.6312869775
C -0.0997758668  0.1931863729 -1.6188745161
H  0.7915566301 -0.2203115963 -1.1576173398
S -1.1451330372  0.2897386701  0.9086254773
O -2.512559671  0.1337401757  1.4042469971
O -0.1505347807 -0.7444035944  1.1935154133
N -0.5678716104  1.6781128694  1.5935418986
H -1.1875878863  2.4714202131  1.4153023943
H  0.3806590794  1.888417492  1.2753878252
F -1.3457624583  1.1370445278 -4.8703295409
$end

$rem
jobtype sp
exchange M062X
basis 6-31+G*
SMX_GAS_PHASE = TRUE
solvent_method sm12
$end

$smx
solvent water
charges mk
$end
--------------------------------------------------------------

             Standard Nuclear Orientation (Angstroms)
    I     Atom           X                Y                Z
 ----------------------------------------------------------------
    1      C      -1.2203593352     0.5098599602    -0.8517197984
    2      C      -2.3802109995     1.0403818708    -1.4155096396
    3      H      -3.2407582520     1.2776964786    -0.7979804563
    4      C      -2.4250097438     1.2546148033    -2.7890243220
    5      H      -3.3073049009     1.6585015038    -3.2737256722
    6      C      -1.3031943783     0.9319182987    -3.5388214936
    7      C      -0.1412368830     0.4062183973    -2.9927002493
    8      H       0.7027710937     0.1688185569    -3.6312869775
    9      C      -0.0997758668     0.1931863729    -1.6188745161
   10      H       0.7915566301    -0.2203115963    -1.1576173398
   11      S      -1.1451330372     0.2897386701     0.9086254773
   12      O      -2.5125596710     0.1337401757     1.4042469971
   13      O      -0.1505347807    -0.7444035944     1.1935154133
   14      N      -0.5678716104     1.6781128694     1.5935418986
   15      H      -1.1875878863     2.4714202131     1.4153023943
   16      H       0.3806590794     1.8884174920     1.2753878252
   17      F      -1.3457624583     1.1370445278    -4.8703295409
 ----------------------------------------------------------------

    8    -935.1688738400      8.68e-06  Convergence criterion met
 Total energy in the final basis set =     -935.1688738400
    5    -935.1646095318      4.64e-06  Convergence criterion met
 Total energy in the final basis set =     -935.1893894158

                    Orbital Energies (a.u.)
 --------------------------------------------------------------

 Alpha MOs
 -- Occupied --
-90.1758 -25.2969 -19.6585 -19.6584 -14.8056 -10.6650 -10.6067 -10.5935
-10.5935 -10.5828 -10.5828  -8.4897  -6.4119  -6.4115  -6.4105  -1.3926
 -1.2592  -1.1457  -1.0347  -1.0010  -0.8914  -0.8834  -0.7769  -0.7385
 -0.7074  -0.6536  -0.6399  -0.6189  -0.5986  -0.5926  -0.5856  -0.5445
 -0.5400  -0.5253  -0.5042  -0.5020  -0.4701  -0.4357  -0.4352  -0.4210
 -0.4050  -0.4010  -0.3845  -0.3400  -0.3267

          Ground-State Mulliken Net Atomic Charges

     Atom                 Charge (a.u.)
  ----------------------------------------
      1 C                    -0.992895
      2 C                    -0.131524
      3 H                     0.293932
      4 C                     0.373533
      5 H                     0.299882
      6 C                    -0.050065
      7 C                     0.373481
      8 H                     0.299653
      9 C                    -0.155594
     10 H                     0.293968
     11 S                     1.105314
     12 O                    -0.760399
     13 O                    -0.760093
     14 N                    -0.825338
     15 H                     0.505062
     16 H                     0.504793
     17 F                    -0.373709
  ----------------------------------------
  Sum of atomic charges =     0.000000

                    Cartesian Multipole Moments
 -----------------------------------------------------------------
    Charge (ESU x 10^10)
                 0.0000
    Dipole Moment (Debye)
         X       1.4737      Y       4.8674      Z      -3.7400
       Tot       6.3128
    Quadrupole Moments (Debye-Ang)
        XX     -68.6395     XY      -5.6272     YY     -64.0159
        XZ       5.6229     YZ       5.2409     ZZ     -79.9073

 Total job time:  11.63s(wall), 139.24s(cpu)
        *  Thank you very much for using Q-Chem.  Have a nice day.  *
