 Q-Chem 5.4 (devel), Q-Chem, Inc., Pleasanton, CA (2021)
 Q-Chem 5.4.1 for Intel X86 EM64T Linux

User input:
--------------------------------------------------------------
$molecule
0  1
C -1.521749  0.646102 -0.822422
C -2.637926  0.934928 -1.609398
F -3.835632  1.105058 -1.036512
C -2.550047  1.062607 -2.986776
H -3.447466  1.289919 -3.551712
C -1.313113  0.897802 -3.602341
C -0.170037  0.609318 -2.856856
H  0.803719  0.476359 -3.315023
C -0.303541  0.492974 -1.489145
F  0.781892  0.207969 -0.745802
S -1.544685  0.48552  0.954667
O -0.594707  1.457  1.487009
O -2.93107  0.515072  1.398677
N -0.958883 -1.00015  1.334524
H  0.023798 -1.115596  1.080571
H -1.236087  0.995908 -4.679973
H -1.535975 -1.75636  0.960473
$end

$rem
jobtype sp
exchange M062X
basis 6-31+G*
SMX_GAS_PHASE = TRUE
solvent_method sm12
$end

$smx
solvent water
charges mk
$end
--------------------------------------------------------------

             Standard Nuclear Orientation (Angstroms)
    I     Atom           X                Y                Z
 ----------------------------------------------------------------
    1      C      -1.5217490000     0.6461020000    -0.8224220000
    2      C      -2.6379260000     0.9349280000    -1.6093980000
    3      F      -3.8356320000     1.1050580000    -1.0365120000
    4      C      -2.5500470000     1.0626070000    -2.9867760000
    5      H      -3.4474660000     1.2899190000    -3.5517120000
    6      C      -1.3131130000     0.8978020000    -3.6023410000
    7      C      -0.1700370000     0.6093180000    -2.8568560000
    8      H       0.8037190000     0.4763590000    -3.3150230000
    9      C      -0.3035410000     0.4929740000    -1.4891450000
   10      F       0.7818920000     0.2079690000    -0.7458020000
   11      S      -1.5446850000     0.4855200000     0.9546670000
   12      O      -0.5947070000     1.4570000000     1.4870090000
   13      O      -2.9310700000     0.5150720000     1.3986770000
   14      N      -0.9588830000    -1.0001500000     1.3345240000
   15      H       0.0237980000    -1.1155960000     1.0805710000
   16      H      -1.2360870000     0.9959080000    -4.6799730000
   17      H      -1.5359750000    -1.7563600000     0.9604730000
 ----------------------------------------------------------------

    8   -1034.3654579366      8.73e-06  Convergence criterion met
 Total energy in the final basis set =    -1034.3654579366
    5   -1034.3598974122      5.21e-06  Convergence criterion met
 Total energy in the final basis set =    -1034.3849172571

                    Orbital Energies (a.u.)
 --------------------------------------------------------------

 Alpha MOs
 -- Occupied --
-90.1883 -25.3121 -25.3036 -19.6636 -19.6624 -14.8109 -10.6833 -10.6824
-10.6200 -10.5940 -10.5840 -10.5830  -8.5009  -6.4232  -6.4227  -6.4222
 -1.4088  -1.4028  -1.2672  -1.1522  -1.0422  -1.0103  -0.9050  -0.8839
 -0.7888  -0.7484  -0.7311  -0.6790  -0.6500  -0.6446  -0.6205  -0.6061
 -0.5974  -0.5945  -0.5891  -0.5663  -0.5574  -0.5450  -0.4944  -0.4746
 -0.4706  -0.4622  -0.4405  -0.4268  -0.4095  -0.4051  -0.3918  -0.3415
 -0.3291

          Ground-State Mulliken Net Atomic Charges

     Atom                 Charge (a.u.)
  ----------------------------------------
      1 C                    -1.287931
      2 C                    -0.964968
      3 F                    -0.362954
      4 C                     0.648831
      5 H                     0.298379
      6 C                     0.474826
      7 C                     0.925584
      8 H                     0.306302
      9 C                     0.272612
     10 F                    -0.350221
     11 S                     1.039816
     12 O                    -0.710714
     13 O                    -0.753592
     14 N                    -0.862909
     15 H                     0.505597
     16 H                     0.303819
     17 H                     0.517523
  ----------------------------------------
  Sum of atomic charges =     0.000000

                    Cartesian Multipole Moments
 -----------------------------------------------------------------
    Charge (ESU x 10^10)
                -0.0000
    Dipole Moment (Debye)
         X       2.1751      Y      -3.6936      Z      -8.0276
       Tot       9.1003
    Quadrupole Moments (Debye-Ang)
        XX     -84.9413     XY       3.0681     YY     -74.6263
        XZ      12.4378     YZ     -10.7350     ZZ     -62.0831

 Total job time:  13.87s(wall), 178.33s(cpu)
        *  Thank you very much for using Q-Chem.  Have a nice day.  *
