 Q-Chem 5.4 (devel), Q-Chem, Inc., Pleasanton, CA (2021)
 Q-Chem 5.4.1 for Intel X86 EM64T Linux

User input:
--------------------------------------------------------------
$molecule
0  1
C -1.5241989223  0.6728585635 -0.7847417961
C -2.6555805516  0.9191622363 -1.5587109902
F -3.8649408424  1.0600402598 -1.0277938958
C -2.5578104436  1.0215785165 -2.9404028296
F -3.6473228496  1.2559536585 -3.66708282
C -1.3291632068  0.8803592047 -3.5648037399
C -0.1896146894  0.635076639 -2.8104062848
F  0.9909263642  0.5013922178 -3.4074579642
C -0.2998649332  0.5325909919 -1.4366421537
F  0.8072898327  0.3046104833 -0.7280265379
S -1.5487462218  0.5072078509  1.0010456448
O -2.8944456546  0.8242329637  1.4489443203
O -0.9573706751 -0.7884865679  1.3038069796
N -0.5512002754  1.6444298579  1.6190054174
H -0.8556486847  2.5991954557  1.4181263695
F -1.2402626032  0.9797225314 -4.8834969958
H  0.4317873568  1.4943501371  1.3849172764
$end

$rem
jobtype sp
exchange M062X
basis 6-31+G*
SMX_GAS_PHASE = TRUE
solvent_method sm12
$end

$smx
solvent water
charges mk
$end
--------------------------------------------------------------

             Standard Nuclear Orientation (Angstroms)
    I     Atom           X                Y                Z
 ----------------------------------------------------------------
    1      C      -1.5241989223     0.6728585635    -0.7847417961
    2      C      -2.6555805516     0.9191622363    -1.5587109902
    3      F      -3.8649408424     1.0600402598    -1.0277938958
    4      C      -2.5578104436     1.0215785165    -2.9404028296
    5      F      -3.6473228496     1.2559536585    -3.6670828200
    6      C      -1.3291632068     0.8803592047    -3.5648037399
    7      C      -0.1896146894     0.6350766390    -2.8104062848
    8      F       0.9909263642     0.5013922178    -3.4074579642
    9      C      -0.2998649332     0.5325909919    -1.4366421537
   10      F       0.8072898327     0.3046104833    -0.7280265379
   11      S      -1.5487462218     0.5072078509     1.0010456448
   12      O      -2.8944456546     0.8242329637     1.4489443203
   13      O      -0.9573706751    -0.7884865679     1.3038069796
   14      N      -0.5512002754     1.6444298579     1.6190054174
   15      H      -0.8556486847     2.5991954557     1.4181263695
   16      F      -1.2402626032     0.9797225314    -4.8834969958
   17      H       0.4317873568     1.4943501371     1.3849172764
 ----------------------------------------------------------------

    8   -1331.9598109426      6.38e-06  Convergence criterion met
 Total energy in the final basis set =    -1331.9598109426
    5   -1331.9557380298      4.70e-06  Convergence criterion met
 Total energy in the final basis set =    -1331.9723021875

                    Orbital Energies (a.u.)
 --------------------------------------------------------------

 Alpha MOs
 -- Occupied --
-90.1960 -25.3293 -25.3287 -25.3243 -25.3232 -25.3207 -19.6696 -19.6683
-14.8158 -10.7038 -10.7027 -10.7015 -10.6931 -10.6918 -10.6377  -8.5082
 -6.4304  -6.4299  -6.4297  -1.4376  -1.4313  -1.4257  -1.4161  -1.4116
 -1.2747  -1.1596  -1.0498  -1.0404  -0.9286  -0.9114  -0.8170  -0.7865
 -0.7557  -0.7132  -0.7127  -0.6950  -0.6575  -0.6566  -0.6479  -0.6451
 -0.6386  -0.6254  -0.6201  -0.6118  -0.5991  -0.5921  -0.5872  -0.5680
 -0.5640  -0.5511  -0.5276  -0.5250  -0.4903  -0.4667  -0.4474  -0.4321
 -0.4150  -0.4116  -0.3994  -0.3484  -0.3371

          Ground-State Mulliken Net Atomic Charges

     Atom                 Charge (a.u.)
  ----------------------------------------
      1 C                    -0.644849
      2 C                    -0.628733
      3 F                    -0.346381
      4 C                     0.664602
      5 F                    -0.354214
      6 C                     0.707967
      7 C                     0.850694
      8 F                    -0.350840
      9 C                     0.904625
     10 F                    -0.337023
     11 S                     1.120421
     12 O                    -0.739182
     13 O                    -0.681780
     14 N                    -0.854070
     15 H                     0.522891
     16 F                    -0.344167
     17 H                     0.510040
  ----------------------------------------
  Sum of atomic charges =     0.000000

                    Cartesian Multipole Moments
 -----------------------------------------------------------------
    Charge (ESU x 10^10)
                 0.0000
    Dipole Moment (Debye)
         X       3.2095      Y       3.9618      Z      -2.5451
       Tot       5.6986
    Quadrupole Moments (Debye-Ang)
        XX    -104.2786     XY       2.0943     YY     -80.3990
        XZ       8.0105     YZ       4.5148     ZZ     -97.0113

 Total job time:  19.02s(wall), 241.66s(cpu)
        *  Thank you very much for using Q-Chem.  Have a nice day.  *
