 Q-Chem 5.4 (devel), Q-Chem, Inc., Pleasanton, CA (2021)
 Q-Chem 5.4.1 for Intel X86 EM64T Linux

User input:
--------------------------------------------------------------
$molecule
0  1
C -1.2847980412  0.7733700502 -0.9134837788
C -2.47788819  0.8967385101 -1.6335685278
H -3.4372187601  0.8939573706 -1.1244008755
C -2.4215981584  1.0319576802 -3.0090391719
H -3.3282282144  1.1359632575 -3.5966620234
C -1.1796853187  1.0439133352 -3.6643737889
O -1.2281850815  1.1866056225 -5.0115097952
C  0.0090137461  0.9168771927 -2.9372804833
H  0.9747765974  0.9281694777 -3.4281401426
C -0.0496579214  0.776923372 -1.5524708553
H  0.8684654783  0.6811400798 -0.9813067908
S -1.3604853357  0.5497409523  0.8388211645
O -0.042767312  0.8568312195  1.3981024865
O -2.537772405  1.2624433699  1.340116688
N -1.6328332975 -1.0485434903  1.1720155626
H -0.8801175221 -1.6386198849  0.8114532926
H -2.5337688124 -1.3587293421  0.8014650331
C  0.0075017095  1.2106899881 -5.7248328244
H -0.2601659432  1.3328139208 -6.7735147332
H  0.5502264153  0.270584955 -5.5870995465
H  0.6244823667  2.0533673631 -5.3982678896
$end

$rem
jobtype sp
exchange M062X
basis 6-31+G*
SMX_GAS_PHASE = TRUE
solvent_method sm12
$end

$smx
solvent water
charges mk
$end
--------------------------------------------------------------

             Standard Nuclear Orientation (Angstroms)
    I     Atom           X                Y                Z
 ----------------------------------------------------------------
    1      C      -1.2847980412     0.7733700502    -0.9134837788
    2      C      -2.4778881900     0.8967385101    -1.6335685278
    3      H      -3.4372187601     0.8939573706    -1.1244008755
    4      C      -2.4215981584     1.0319576802    -3.0090391719
    5      H      -3.3282282144     1.1359632575    -3.5966620234
    6      C      -1.1796853187     1.0439133352    -3.6643737889
    7      O      -1.2281850815     1.1866056225    -5.0115097952
    8      C       0.0090137461     0.9168771927    -2.9372804833
    9      H       0.9747765974     0.9281694777    -3.4281401426
   10      C      -0.0496579214     0.7769233720    -1.5524708553
   11      H       0.8684654783     0.6811400798    -0.9813067908
   12      S      -1.3604853357     0.5497409523     0.8388211645
   13      O      -0.0427673120     0.8568312195     1.3981024865
   14      O      -2.5377724050     1.2624433699     1.3401166880
   15      N      -1.6328332975    -1.0485434903     1.1720155626
   16      H      -0.8801175221    -1.6386198849     0.8114532926
   17      H      -2.5337688124    -1.3587293421     0.8014650331
   18      C       0.0075017095     1.2106899881    -5.7248328244
   19      H      -0.2601659432     1.3328139208    -6.7735147332
   20      H       0.5502264153     0.2705849550    -5.5870995465
   21      H       0.6244823667     2.0533673631    -5.3982678896
 ----------------------------------------------------------------

    8    -950.4407131274      7.79e-06  Convergence criterion met
 Total energy in the final basis set =     -950.4407131274
    5    -950.4359358605      4.89e-06  Convergence criterion met
 Total energy in the final basis set =     -950.4648760296

                    Orbital Energies (a.u.)
 --------------------------------------------------------------

 Alpha MOs
 -- Occupied --
-90.1735 -19.6924 -19.6568 -19.6561 -14.8041 -10.6406 -10.6015 -10.5981
-10.5876 -10.5869 -10.5745 -10.5724  -8.4874  -6.4096  -6.4092  -6.4082
 -1.2566  -1.2091  -1.1430  -1.0325  -0.9895  -0.8883  -0.8750  -0.8157
 -0.7572  -0.7212  -0.6890  -0.6475  -0.6170  -0.6155  -0.5880  -0.5800
 -0.5584  -0.5413  -0.5366  -0.5178  -0.4958  -0.4926  -0.4731  -0.4463
 -0.4336  -0.4247  -0.4186  -0.4100  -0.3988  -0.3929  -0.3813  -0.3342
 -0.2998

          Ground-State Mulliken Net Atomic Charges

     Atom                 Charge (a.u.)
  ----------------------------------------
      1 C                    -1.519877
      2 C                    -0.115614
      3 H                     0.284427
      4 C                    -0.259832
      5 H                     0.270025
      6 C                     0.270568
      7 O                    -0.475663
      8 C                     1.781639
      9 H                     0.282048
     10 C                    -1.239683
     11 H                     0.284742
     12 S                     1.158649
     13 O                    -0.762136
     14 O                    -0.748615
     15 N                    -0.820864
     16 H                     0.506061
     17 H                     0.502499
     18 C                    -0.149035
     19 H                     0.254587
     20 H                     0.244182
     21 H                     0.251892
  ----------------------------------------
  Sum of atomic charges =     0.000000

                    Cartesian Multipole Moments
 -----------------------------------------------------------------
    Charge (ESU x 10^10)
                 0.0000
    Dipole Moment (Debye)
         X       1.3327      Y      -3.7267      Z      -7.9596
       Tot       8.8893
    Quadrupole Moments (Debye-Ang)
        XX     -75.8439     XY       8.4103     YY     -78.9049
        XZ      -0.6622     YZ     -10.4847     ZZ     -65.7988

 Total job time:  20.30s(wall), 147.09s(cpu)
        *  Thank you very much for using Q-Chem.  Have a nice day.  *
