                         Program Version 5.0.3 -  RELEASE  -
|  1> !PAL8
|  2> !RI-DSD-PBEP86 D3BJ aug-cc-pVTZ aug-cc-pVTZ/C TightSCF
|  3> %maxcore 3000
|  4>
|  5>
|  6> * xyz -1 1
|  7> C -1.3937728853  0.775496776 -1.0303842102
|  8> C -2.327959178  1.4074316259 -1.841807247
|  9> H -3.2412088884  1.7807496848 -1.3843747062
| 10> C -2.1155089337  1.5336484391 -3.2160297347
| 11> H -2.8666962858  2.0233412456 -3.8287330188
| 12> C -0.9450870096  1.0284294345 -3.7960826419
| 13> N -0.669828155  1.163537076 -5.1721336736
| 14> C -0.0061935045  0.3911929928 -2.9710210118
| 15> H  0.9081370061 -0.0020606566 -3.4145613317
| 16> C -0.2288709071  0.2673094461 -1.604141501
| 17> H  0.488645543 -0.2356382837 -0.9618238646
| 18> S -1.6811029425  0.667321009  0.7659659706
| 19> O -0.7921317893 -0.4596964531  1.1576698326
| 20> O -1.2843291597  2.0059780974  1.24525654
| 21> N -3.2125442702  0.4280581851  0.9946330008
| 22> H -3.3622102276 -0.5776824011  0.8874024772
| 23> C -1.7614733052  1.4644370916 -6.0741428547
| 24> H -0.0782853407  0.4139557983 -5.5089955897
| 25> H -2.1090108995  2.490182489 -5.9134493815
| 26> H -2.6257237445  0.7902908986 -5.9548620862
| 27> H -1.3970651227  1.3961145046 -7.1025129678
| 28> *
| 29>
| 30>                          ****END OF INPUT****

CARTESIAN COORDINATES (ANGSTROEM)
---------------------------------
  C     -1.393773    0.775497   -1.030384
  C     -2.327959    1.407432   -1.841807
  H     -3.241209    1.780750   -1.384375
  C     -2.115509    1.533648   -3.216030
  H     -2.866696    2.023341   -3.828733
  C     -0.945087    1.028429   -3.796083
  N     -0.669828    1.163537   -5.172134
  C     -0.006194    0.391193   -2.971021
  H      0.908137   -0.002061   -3.414561
  C     -0.228871    0.267309   -1.604142
  H      0.488646   -0.235638   -0.961824
  S     -1.681103    0.667321    0.765966
  O     -0.792132   -0.459696    1.157670
  O     -1.284329    2.005978    1.245257
  N     -3.212544    0.428058    0.994633
  H     -3.362210   -0.577682    0.887402
  C     -1.761473    1.464437   -6.074143
  H     -0.078285    0.413956   -5.508996
  H     -2.109011    2.490182   -5.913449
  H     -2.625724    0.790291   -5.954862
  H     -1.397065    1.396115   -7.102513

 Total Charge           Charge          ....   -1
 Multiplicity           Mult            ....    1
 Number of Electrons    NEL             ....   98
 Basis Dimension        Dim             ....  763

ORBITAL ENERGIES
----------------

  NO   OCC          E(Eh)            E(eV)
   0   2.0000     -90.831024     -2471.6378
   1   2.0000     -19.813480      -539.1522
   2   2.0000     -19.810411      -539.0687
   3   2.0000     -15.011062      -408.4718
   4   2.0000     -14.872578      -404.7034
   5   2.0000     -10.776728      -293.2497
   6   2.0000     -10.769450      -293.0516
   7   2.0000     -10.719691      -291.6976
   8   2.0000     -10.719351      -291.6884
   9   2.0000     -10.717789      -291.6459
  10   2.0000     -10.717086      -291.6267
  11   2.0000     -10.708342      -291.3888
  12   2.0000      -8.572858      -233.2793
  13   2.0000      -6.358988      -173.0369
  14   2.0000      -6.357398      -172.9936
  15   2.0000      -6.356521      -172.9697
  16   2.0000      -1.120677       -30.4952
  17   2.0000      -1.035981       -28.1905
  18   2.0000      -1.004528       -27.3346
  19   2.0000      -0.918914       -25.0049
  20   2.0000      -0.866041       -23.5662
  21   2.0000      -0.808622       -22.0037
  22   2.0000      -0.801145       -21.8003
  23   2.0000      -0.740176       -20.1412
  24   2.0000      -0.643626       -17.5140
  25   2.0000      -0.625866       -17.0307
  26   2.0000      -0.561922       -15.2907
  27   2.0000      -0.540045       -14.6954
  28   2.0000      -0.500434       -13.6175
  29   2.0000      -0.466827       -12.7030
  30   2.0000      -0.462244       -12.5783
  31   2.0000      -0.443740       -12.0748
  32   2.0000      -0.428606       -11.6630
  33   2.0000      -0.412042       -11.2122
  34   2.0000      -0.405056       -11.0221
  35   2.0000      -0.397826       -10.8254
  36   2.0000      -0.379181       -10.3180
  37   2.0000      -0.370157       -10.0725
  38   2.0000      -0.352016        -9.5788
  39   2.0000      -0.319872        -8.7041
  40   2.0000      -0.284532        -7.7425
  41   2.0000      -0.278416        -7.5761
  42   2.0000      -0.245759        -6.6874
  43   2.0000      -0.230392        -6.2693
  44   2.0000      -0.209183        -5.6922
  45   2.0000      -0.197870        -5.3843
  46   2.0000      -0.182527        -4.9668
  47   2.0000      -0.167325        -4.5531
  48   2.0000      -0.141730        -3.8567
  49   0.0000       0.076707         2.0873
  50   0.0000       0.092385         2.5139
  51   0.0000       0.102286         2.7834
  52   0.0000       0.105334         2.8663
  53   0.0000       0.119333         3.2472

MULLIKEN ATOMIC CHARGES
-----------------------
   0 C :    1.085950
   1 C :   -0.741444
   2 H :    0.433443
   3 C :   -0.625844
   4 H :    0.326045
   5 C :    1.148577
   6 N :   -0.585824
   7 C :   -0.862230
   8 H :    0.450289
   9 C :   -0.856520
  10 H :    0.364514
  11 S :    1.877369
  12 O :   -1.019444
  13 O :   -1.017660
  14 N :   -1.060535
  15 H :    0.087893
  16 C :   -1.045654
  17 H :    0.000825
  18 H :    0.356483
  19 H :    0.306333
  20 H :    0.377433
Sum of atomic charges:   -1.0000000

LOEWDIN ATOMIC CHARGES
----------------------
   0 C :   -0.252795
   1 C :    0.144701
   2 H :   -0.196110
   3 C :    0.200462
   4 H :   -0.207690
   5 C :   -0.251251
   6 N :    0.532378
   7 C :    0.198517
   8 H :   -0.187390
   9 C :    0.141894
  10 H :   -0.210893
  11 S :   -0.145016
  12 O :   -0.025615
  13 O :   -0.033184
  14 N :    0.270132
  15 H :   -0.594343
  16 C :    0.435426
  17 H :   -0.310140
  18 H :   -0.176378
  19 H :   -0.159845
  20 H :   -0.172861

  Mayer bond orders larger than 0.100000
B(  0-C ,  1-C ) :   0.9745 B(  0-C ,  9-C ) :   0.7348 B(  0-C , 11-S ) :   0.8665
B(  0-C , 12-O ) :   0.2634 B(  0-C , 13-O ) :  -0.1476 B(  0-C , 14-N ) :   0.1068
B(  1-C ,  2-H ) :   0.6894 B(  1-C ,  3-C ) :   1.1150 B(  1-C ,  5-C ) :  -0.2105
B(  1-C , 14-N ) :  -0.1163 B(  3-C ,  4-H ) :   0.9153 B(  3-C ,  5-C ) :   0.9556
B(  3-C ,  6-N ) :  -0.2366 B(  3-C ,  7-C ) :   0.1915 B(  3-C , 16-C ) :  -0.1412
B(  5-C ,  6-N ) :   0.4672 B(  5-C ,  7-C ) :   0.9141 B(  6-N , 16-C ) :   1.0360
B(  6-N , 17-H ) :   1.1400 B(  7-C ,  8-H ) :   0.7175 B(  7-C ,  9-C ) :   1.2338
B(  9-C , 10-H ) :   0.8365 B(  9-C , 11-S ) :   0.1022 B(  9-C , 12-O ) :  -0.1886
B( 11-S , 12-O ) :   1.1733 B( 11-S , 13-O ) :   1.2968 B( 11-S , 14-N ) :   1.2400
B( 11-S , 15-H ) :   0.1172 B( 14-N , 15-H ) :   0.9608 B( 16-C , 18-H ) :   0.9069
B( 16-C , 19-H ) :   0.9193 B( 16-C , 20-H ) :   0.8697

MP2 TOTAL ENERGY:     -929.310501926 Eh
Dispersion correction           -0.015020140
FINAL SINGLE POINT ENERGY      -929.325522065719

DIPOLE MOMENT
-------------
                                X             Y             Z
Electronic contribution:      1.93233      -0.70455      13.44571
Nuclear contribution   :     -1.47384       0.33101     -18.55963
                        -----------------------------------------
Total Dipole Moment    :      0.45850      -0.37353      -5.11391
                        -----------------------------------------
Magnitude (a.u.)       :      5.14799
Magnitude (Debye)      :     13.08516

Rotational constants in cm-1:     0.080193     0.013710     0.012656
Rotational constants in MHz :  2404.119884   411.010739   379.422996

                             ****ORCA TERMINATED NORMALLY****
TOTAL RUN TIME: 0 days 0 hours 2 minutes 58 seconds 410 msec
