                         Program Version 5.0.3 -  RELEASE  -
|  1> !PAL8
|  2> !RI-DSD-PBEP86 D3BJ aug-cc-pVTZ aug-cc-pVTZ/C TightSCF
|  3> %maxcore 3000
|  4>
|  5>
|  6> * xyz -1 1
|  7> C -1.347814202  0.7304135904 -1.0115790987
|  8> C -2.5360358322  0.9766824951 -1.6992369483
|  9> H -3.4479295005  1.1192682092 -1.125706921
| 10> C -2.5324408925  1.0519645808 -3.0893823155
| 11> H -3.4613135021  1.2535788382 -3.6236116854
| 12> C -1.3476401916  0.8843070964 -3.8164515729
| 13> C -1.3641500267  0.8814850357 -5.3279186076
| 14> C -0.1622274258  0.6526529376 -3.1130424972
| 15> H  0.7721561549  0.5424171064 -3.6640819175
| 16> C -0.1588887012  0.5749875725 -1.7202127954
| 17> H  0.7613237841  0.4184399406 -1.163677627
| 18> S -1.3806149302  0.5292756487  0.8005852107
| 19> O  0.0178377223  0.8564214419  1.1819659529
| 20> O -2.4261951518  1.4848421215  1.2121522711
| 21> N -1.8225768552 -0.942174879  1.1039580488
| 22> H -0.97461056 -1.510976517  1.0558134013
| 23> N -1.624961852 -0.4322133352 -5.9427069305
| 24> H -2.131731009  1.5706485055 -5.6987340393
| 25> H -0.4023410286  1.2363593477 -5.7159916054
| 26> H -2.5154048131 -0.7816228254 -5.5898977612
| 27> H -0.927079187 -1.091581912 -5.5997155619
| 28> *
| 29>
| 30>                          ****END OF INPUT****

CARTESIAN COORDINATES (ANGSTROEM)
---------------------------------
  C     -1.347814    0.730414   -1.011579
  C     -2.536036    0.976682   -1.699237
  H     -3.447930    1.119268   -1.125707
  C     -2.532441    1.051965   -3.089382
  H     -3.461314    1.253579   -3.623612
  C     -1.347640    0.884307   -3.816452
  C     -1.364150    0.881485   -5.327919
  C     -0.162227    0.652653   -3.113042
  H      0.772156    0.542417   -3.664082
  C     -0.158889    0.574988   -1.720213
  H      0.761324    0.418440   -1.163678
  S     -1.380615    0.529276    0.800585
  O      0.017838    0.856421    1.181966
  O     -2.426195    1.484842    1.212152
  N     -1.822577   -0.942175    1.103958
  H     -0.974611   -1.510977    1.055813
  N     -1.624962   -0.432213   -5.942707
  H     -2.131731    1.570649   -5.698734
  H     -0.402341    1.236359   -5.715992
  H     -2.515405   -0.781623   -5.589898
  H     -0.927079   -1.091582   -5.599716

 Total Charge           Charge          ....   -1
 Multiplicity           Mult            ....    1
 Number of Electrons    NEL             ....   98
 Basis Dimension        Dim             ....  763

ORBITAL ENERGIES
----------------

  NO   OCC          E(Eh)            E(eV)
   0   2.0000     -90.839090     -2471.8573
   1   2.0000     -19.821601      -539.3732
   2   2.0000     -19.819941      -539.3280
   3   2.0000     -14.995141      -408.0385
   4   2.0000     -14.879759      -404.8988
   5   2.0000     -10.770016      -293.0670
   6   2.0000     -10.736551      -292.1564
   7   2.0000     -10.730469      -291.9909
   8   2.0000     -10.729872      -291.9747
   9   2.0000     -10.724182      -291.8198
  10   2.0000     -10.722434      -291.7723
  11   2.0000     -10.721986      -291.7601
  12   2.0000      -8.580995      -233.5008
  13   2.0000      -6.367239      -173.2614
  14   2.0000      -6.365510      -173.2143
  15   2.0000      -6.364582      -173.1891
  16   2.0000      -1.130127       -30.7523
  17   2.0000      -1.015015       -27.6200
  18   2.0000      -0.993736       -27.0409
  19   2.0000      -0.933987       -25.4151
  20   2.0000      -0.872855       -23.7516
  21   2.0000      -0.824699       -22.4412
  22   2.0000      -0.808973       -22.0133
  23   2.0000      -0.724069       -19.7029
  24   2.0000      -0.642439       -17.4817
  25   2.0000      -0.628463       -17.1013
  26   2.0000      -0.568137       -15.4598
  27   2.0000      -0.522802       -14.2262
  28   2.0000      -0.509718       -13.8701
  29   2.0000      -0.462883       -12.5957
  30   2.0000      -0.457517       -12.4497
  31   2.0000      -0.440989       -11.9999
  32   2.0000      -0.430370       -11.7110
  33   2.0000      -0.419389       -11.4121
  34   2.0000      -0.416450       -11.3322
  35   2.0000      -0.385864       -10.4999
  36   2.0000      -0.372538       -10.1373
  37   2.0000      -0.370344       -10.0776
  38   2.0000      -0.341361        -9.2889
  39   2.0000      -0.324084        -8.8188
  40   2.0000      -0.287745        -7.8299
  41   2.0000      -0.266258        -7.2453
  42   2.0000      -0.254657        -6.9296
  43   2.0000      -0.239763        -6.5243
  44   2.0000      -0.223757        -6.0887
  45   2.0000      -0.203103        -5.5267
  46   2.0000      -0.197901        -5.3852
  47   2.0000      -0.189086        -5.1453
  48   2.0000      -0.148515        -4.0413
  49   0.0000       0.088420         2.4060
  50   0.0000       0.096241         2.6188
  51   0.0000       0.099513         2.7079
  52   0.0000       0.108769         2.9597
  53   0.0000       0.120828         3.2879

MULLIKEN ATOMIC CHARGES
-----------------------
   0 C :    0.932958
   1 C :   -0.881933
   2 H :    0.474761
   3 C :   -0.939533
   4 H :    0.319744
   5 C :    1.438915
   6 C :   -0.200446
   7 C :   -0.983840
   8 H :    0.268958
   9 C :   -0.883989
  10 H :    0.423547
  11 S :    1.880850
  12 O :   -1.014845
  13 O :   -1.009814
  14 N :   -1.089585
  15 H :    0.104778
  16 N :   -0.623965
  17 H :    0.279661
  18 H :    0.252232
  19 H :    0.121726
  20 H :    0.129819
Sum of atomic charges:   -1.0000000

LOEWDIN ATOMIC CHARGES
----------------------
   0 C :   -0.244811
   1 C :    0.152933
   2 H :   -0.199401
   3 C :    0.195103
   4 H :   -0.181153
   5 C :   -0.135290
   6 C :    0.123417
   7 C :    0.193079
   8 H :   -0.182411
   9 C :    0.150384
  10 H :   -0.211005
  11 S :   -0.141070
  12 O :   -0.021486
  13 O :   -0.018180
  14 N :    0.272260
  15 H :   -0.598910
  16 N :    0.826042
  17 H :   -0.160877
  18 H :   -0.161939
  19 H :   -0.328596
  20 H :   -0.328089

  Mayer bond orders larger than 0.100000
B(  0-C ,  1-C ) :   1.0109 B(  0-C ,  9-C ) :   0.8054 B(  0-C , 11-S ) :   0.8884
B(  0-C , 12-O ) :   0.1325 B(  0-C , 13-O ) :   0.1187 B(  0-C , 14-N ) :   0.1468
B(  1-C ,  2-H ) :   0.6542 B(  1-C ,  3-C ) :   1.3488 B(  3-C ,  4-H ) :   1.0102
B(  3-C ,  5-C ) :   0.5836 B(  3-C ,  7-C ) :  -0.1589 B(  5-C ,  6-C ) :   0.4274
B(  5-C ,  7-C ) :   0.6276 B(  6-C , 16-N ) :   0.8227 B(  6-C , 17-H ) :   1.0030
B(  6-C , 18-H ) :   1.0196 B(  7-C ,  8-H ) :   1.0998 B(  7-C ,  9-C ) :   1.3792
B(  9-C , 10-H ) :   0.7556 B( 11-S , 12-O ) :   1.1737 B( 11-S , 13-O ) :   1.1989
B( 11-S , 14-N ) :   1.3434 B( 14-N , 15-H ) :   0.9470 B( 16-N , 19-H ) :   0.9657
B( 16-N , 20-H ) :   0.9657

MP2 TOTAL ENERGY:     -929.318363018 Eh
Dispersion correction           -0.015107831
FINAL SINGLE POINT ENERGY      -929.333470848700

DIPOLE MOMENT
-------------
                                X             Y             Z
Electronic contribution:      0.25051       2.20537      12.77478
Nuclear contribution   :      0.15258      -2.28879     -16.76566
                        -----------------------------------------
Total Dipole Moment    :      0.40309      -0.08343      -3.99088
                        -----------------------------------------
Magnitude (a.u.)       :      4.01205
Magnitude (Debye)      :     10.19782

Rotational constants in cm-1:     0.076514     0.013557     0.012882
Rotational constants in MHz :  2293.843199   406.443020   386.186399

                             ****ORCA TERMINATED NORMALLY****
TOTAL RUN TIME: 0 days 0 hours 3 minutes 20 seconds 799 msec
