                         Program Version 5.0.3 -  RELEASE  -
|  1> !PAL8
|  2> !RI-DSD-PBEP86 D3BJ aug-cc-pVTZ aug-cc-pVTZ/C TightSCF
|  3> %maxcore 3000
|  4>
|  5>
|  6> * xyz -1 1
|  7> C -1.3948627481  0.5112027664 -1.0108340718
|  8> C -2.5377321078  0.3193452754 -1.7904495013
|  9> H -3.483582733  0.1343783112 -1.2887754916
| 10> C -2.4458497896  0.3391678774 -3.1766319368
| 11> H -3.3220931785  0.1842618606 -3.7998793776
| 12> C -1.2107697518  0.5546679601 -3.8039759465
| 13> C -1.1510049678  0.5686006439 -5.2898996372
| 14> C -0.0677536334  0.7405138503 -3.0110914177
| 15> H  0.9021169442  0.9000228841 -3.4754945751
| 16> C -0.1590012304  0.7175816563 -1.6244540982
| 17> H  0.7173752165  0.847726442 -0.9960751903
| 18> S -1.5171875986  0.5958370887  0.8070886816
| 19> O -2.7151860065 -0.2346006212  1.0851854225
| 20> O -0.2144610267  0.0583816704  1.2392658427
| 21> N -1.6519989368  2.1084719127  1.1831275853
| 22> H -2.6472042578  2.3332576843  1.122925764
| 23> O -2.145261345  0.4020208543 -5.9780358073
| 24> C  0.1938052516  0.799240188 -5.9597698462
| 25> H  0.9095288984  0.0227368177 -5.6701757081
| 26> H  0.6156658084  1.7644027633 -5.6605115082
| 27> H  0.0508241925  0.7809841139 -7.0410981823
| 28> *
| 29>
| 30>                          ****END OF INPUT****

CARTESIAN COORDINATES (ANGSTROEM)
---------------------------------
  C     -1.394863    0.511203   -1.010834
  C     -2.537732    0.319345   -1.790450
  H     -3.483583    0.134378   -1.288775
  C     -2.445850    0.339168   -3.176632
  H     -3.322093    0.184262   -3.799879
  C     -1.210770    0.554668   -3.803976
  C     -1.151005    0.568601   -5.289900
  C     -0.067754    0.740514   -3.011091
  H      0.902117    0.900023   -3.475495
  C     -0.159001    0.717582   -1.624454
  H      0.717375    0.847726   -0.996075
  S     -1.517188    0.595837    0.807089
  O     -2.715186   -0.234601    1.085185
  O     -0.214461    0.058382    1.239266
  N     -1.651999    2.108472    1.183128
  H     -2.647204    2.333258    1.122926
  O     -2.145261    0.402021   -5.978036
  C      0.193805    0.799240   -5.959770
  H      0.909529    0.022737   -5.670176
  H      0.615666    1.764403   -5.660512
  H      0.050824    0.780984   -7.041098

 Total Charge           Charge          ....   -1
 Multiplicity           Mult            ....    1
 Number of Electrons    NEL             ....  104
 Basis Dimension        Dim             ....  786

ORBITAL ENERGIES
----------------

  NO   OCC          E(Eh)            E(eV)
   0   2.0000     -90.848256     -2472.1067
   1   2.0000     -19.918161      -542.0007
   2   2.0000     -19.830438      -539.6137
   3   2.0000     -19.828888      -539.5715
   4   2.0000     -14.889051      -405.1517
   5   2.0000     -10.841258      -295.0056
   6   2.0000     -10.753875      -292.6278
   7   2.0000     -10.748110      -292.4709
   8   2.0000     -10.744645      -292.3767
   9   2.0000     -10.741158      -292.2818
  10   2.0000     -10.741100      -292.2802
  11   2.0000     -10.730280      -291.9858
  12   2.0000     -10.729854      -291.9742
  13   2.0000      -8.590091      -233.7482
  14   2.0000      -6.376417      -173.5111
  15   2.0000      -6.374576      -173.4610
  16   2.0000      -6.373639      -173.4355
  17   2.0000      -1.169676       -31.8285
  18   2.0000      -1.139860       -31.0172
  19   2.0000      -1.024437       -27.8763
  20   2.0000      -0.950567       -25.8662
  21   2.0000      -0.882992       -24.0274
  22   2.0000      -0.853809       -23.2333
  23   2.0000      -0.821491       -22.3539
  24   2.0000      -0.807372       -21.9697
  25   2.0000      -0.687010       -18.6945
  26   2.0000      -0.648402       -17.6439
  27   2.0000      -0.593974       -16.1629
  28   2.0000      -0.576201       -15.6792
  29   2.0000      -0.526242       -14.3198
  30   2.0000      -0.486217       -13.2306
  31   2.0000      -0.478038       -13.0081
  32   2.0000      -0.464796       -12.6477
  33   2.0000      -0.458297       -12.4709
  34   2.0000      -0.441182       -12.0052
  35   2.0000      -0.430670       -11.7191
  36   2.0000      -0.428854       -11.6697
  37   2.0000      -0.412225       -11.2172
  38   2.0000      -0.392646       -10.6845
  39   2.0000      -0.380896       -10.3647
  40   2.0000      -0.378218       -10.2918
  41   2.0000      -0.346279        -9.4227
  42   2.0000      -0.335447        -9.1280
  43   2.0000      -0.296680        -8.0731
  44   2.0000      -0.270007        -7.3473
  45   2.0000      -0.263903        -7.1812
  46   2.0000      -0.248949        -6.7742
  47   2.0000      -0.234548        -6.3824
  48   2.0000      -0.214317        -5.8319
  49   2.0000      -0.210888        -5.7385
  50   2.0000      -0.197546        -5.3755
  51   2.0000      -0.158840        -4.3223
  52   0.0000       0.082218         2.2373
  53   0.0000       0.100252         2.7280
  54   0.0000       0.101499         2.7619
  55   0.0000       0.107418         2.9230
  56   0.0000       0.116632         3.1737

MULLIKEN ATOMIC CHARGES
-----------------------
   0 C :    0.876733
   1 C :   -0.671579
   2 H :    0.455810
   3 C :   -1.023244
   4 H :    0.235540
   5 C :    1.539545
   6 C :    0.640840
   7 C :   -0.541253
   8 H :    0.076068
   9 C :   -1.022291
  10 H :    0.423785
  11 S :    1.886126
  12 O :   -1.012164
  13 O :   -1.008317
  14 N :   -1.069012
  15 H :    0.117229
  16 O :   -0.971626
  17 C :   -0.862952
  18 H :    0.320259
  19 H :    0.304563
  20 H :    0.305939
Sum of atomic charges:   -1.0000000

LOEWDIN ATOMIC CHARGES
----------------------
   0 C :   -0.232134
   1 C :    0.164515
   2 H :   -0.206894
   3 C :    0.194748
   4 H :   -0.190431
   5 C :   -0.141899
   6 C :   -0.544879
   7 C :    0.190279
   8 H :   -0.197489
   9 C :    0.164245
  10 H :   -0.201217
  11 S :   -0.137734
  12 O :   -0.016896
  13 O :   -0.012498
  14 N :    0.279122
  15 H :   -0.594176
  16 O :    0.463309
  17 C :    0.557277
  18 H :   -0.174318
  19 H :   -0.174136
  20 H :   -0.188797

  Mayer bond orders larger than 0.100000
B(  0-C ,  1-C ) :   0.9967 B(  0-C ,  9-C ) :   1.0157 B(  0-C , 11-S ) :   0.8923
B(  0-C , 12-O ) :   0.1780 B(  0-C , 14-N ) :   0.2000 B(  1-C ,  2-H ) :   0.6765
B(  1-C ,  3-C ) :   1.3853 B(  1-C , 16-O ) :  -0.1095 B(  3-C ,  4-H ) :   1.1311
B(  3-C ,  5-C ) :   0.3710 B(  3-C ,  6-C ) :   0.2397 B(  3-C ,  7-C ) :  -0.3358
B(  3-C ,  9-C ) :   0.1374 B(  4-H ,  5-C ) :  -0.1128 B(  4-H , 16-O ) :   0.1262
B(  5-C ,  6-C ) :   0.4059 B(  5-C ,  7-C ) :   0.4151 B(  5-C ,  8-H ) :  -0.2121
B(  5-C , 16-O ) :   0.2044 B(  6-C ,  7-C ) :   0.1931 B(  6-C , 16-O ) :   0.9281
B(  6-C , 17-C ) :   0.9126 B(  7-C ,  8-H ) :   1.4942 B(  7-C ,  9-C ) :   1.2092
B(  8-H ,  9-C ) :  -0.1174 B(  9-C , 10-H ) :   0.7384 B(  9-C , 14-N ) :  -0.1062
B( 11-S , 12-O ) :   1.1510 B( 11-S , 13-O ) :   1.2134 B( 11-S , 14-N ) :   1.3548
B( 14-N , 15-H ) :   0.9276 B( 17-C , 18-H ) :   0.9472 B( 17-C , 19-H ) :   0.9675
B( 17-C , 20-H ) :   0.9116

MP2 TOTAL ENERGY:     -987.240286107 Eh
Dispersion correction           -0.015732996
FINAL SINGLE POINT ENERGY      -987.256019103449

DIPOLE MOMENT
-------------
                                X             Y             Z
Electronic contribution:     -3.36027      -2.05967       7.99138
Nuclear contribution   :      4.13834       2.20889     -11.88287
                        -----------------------------------------
Total Dipole Moment    :      0.77808       0.14922      -3.89149
                        -----------------------------------------
Magnitude (a.u.)       :      3.97132
Magnitude (Debye)      :     10.09430

Rotational constants in cm-1:     0.070308     0.011334     0.010393
Rotational constants in MHz :  2107.790767   339.776769   311.575264

                             ****ORCA TERMINATED NORMALLY****
TOTAL RUN TIME: 0 days 0 hours 2 minutes 57 seconds 580 msec
