                         Program Version 5.0.3 -  RELEASE  -
|  1> !PAL8
|  2> !RI-DSD-PBEP86 D3BJ aug-cc-pVTZ aug-cc-pVTZ/C TightSCF
|  3> %maxcore 5000
|  4>
|  5>
|  6> * xyz -1 1
|  7> C -1.3460812663  0.6727831717 -0.8872907486
|  8> C -2.4899751799  0.4678691381 -1.6614429188
|  9> H -3.4334728787  0.2865972296 -1.1547105997
| 10> C -2.4103411225  0.509224306 -3.0476492296
| 11> H -3.295956145  0.3530150523 -3.6554247382
| 12> C -1.1794487948  0.7605044911 -3.670252071
| 13> C -1.041084059  0.8211101647 -5.1420954794
| 14> C -0.0367151864  0.9740627326 -2.8910554607
| 15> H  0.9058454364  1.1792565331 -3.3907639854
| 16> C -0.12056944  0.9283061024 -1.5039951272
| 17> H  0.7486457233  1.1101756425 -0.8783014476
| 18> S -1.4497349322  0.505943259  0.9265405505
| 19> O -0.2984611007  1.3214680086  1.3878375448
| 20> O -2.7977773526  1.0258123402  1.2181079021
| 21> N -1.3564375459 -1.0219824852  1.2496224773
| 22> H -0.3605012496 -1.2459226919  1.3001770195
| 23> O -2.2105207603  0.6091796373 -5.7924044908
| 24> O -0.0102353718  1.0347091953 -5.7467271807
| 25> C -2.1275867745  0.6571482873 -7.209686407
| 26> H -3.1385791628  0.4693545127 -7.5715117637
| 27> H -1.4387520876 -0.1065356487 -7.580557151
| 28> H -1.7768227493  1.6380950211 -7.5412596951
| 29> *
| 30>
| 31>                          ****END OF INPUT****

CARTESIAN COORDINATES (ANGSTROEM)
---------------------------------
  C     -1.346081    0.672783   -0.887291
  C     -2.489975    0.467869   -1.661443
  H     -3.433473    0.286597   -1.154711
  C     -2.410341    0.509224   -3.047649
  H     -3.295956    0.353015   -3.655425
  C     -1.179449    0.760504   -3.670252
  C     -1.041084    0.821110   -5.142095
  C     -0.036715    0.974063   -2.891055
  H      0.905845    1.179257   -3.390764
  C     -0.120569    0.928306   -1.503995
  H      0.748646    1.110176   -0.878301
  S     -1.449735    0.505943    0.926541
  O     -0.298461    1.321468    1.387838
  O     -2.797777    1.025812    1.218108
  N     -1.356438   -1.021982    1.249622
  H     -0.360501   -1.245923    1.300177
  O     -2.210521    0.609180   -5.792404
  O     -0.010235    1.034709   -5.746727
  C     -2.127587    0.657148   -7.209686
  H     -3.138579    0.469355   -7.571512
  H     -1.438752   -0.106536   -7.580557
  H     -1.776823    1.638095   -7.541260

 Total Charge           Charge          ....   -1
 Multiplicity           Mult            ....    1
 Number of Electrons    NEL             ....  112
 Basis Dimension        Dim             ....  832

ORBITAL ENERGIES
----------------

  NO   OCC          E(Eh)            E(eV)
   0   2.0000     -90.847262     -2472.0797
   1   2.0000     -19.986653      -543.8645
   2   2.0000     -19.920073      -542.0527
   3   2.0000     -19.829472      -539.5874
   4   2.0000     -19.827773      -539.5411
   5   2.0000     -14.888049      -405.1244
   6   2.0000     -10.886162      -296.2275
   7   2.0000     -10.811111      -294.1853
   8   2.0000     -10.748722      -292.4876
   9   2.0000     -10.744534      -292.3736
  10   2.0000     -10.743089      -292.3343
  11   2.0000     -10.740297      -292.2583
  12   2.0000     -10.728888      -291.9479
  13   2.0000     -10.728539      -291.9384
  14   2.0000      -8.589087      -233.7209
  15   2.0000      -6.375420      -173.4840
  16   2.0000      -6.373572      -173.4337
  17   2.0000      -6.372613      -173.4076
  18   2.0000      -1.250714       -34.0337
  19   2.0000      -1.148227       -31.2448
  20   2.0000      -1.138728       -30.9864
  21   2.0000      -1.023306       -27.8456
  22   2.0000      -0.951268       -25.8853
  23   2.0000      -0.882081       -24.0027
  24   2.0000      -0.850215       -23.1355
  25   2.0000      -0.820153       -22.3175
  26   2.0000      -0.796445       -21.6724
  27   2.0000      -0.688747       -18.7418
  28   2.0000      -0.649677       -17.6786
  29   2.0000      -0.617718       -16.8090
  30   2.0000      -0.576319       -15.6824
  31   2.0000      -0.567413       -15.4401
  32   2.0000      -0.527026       -14.3411
  33   2.0000      -0.521999       -14.2043
  34   2.0000      -0.490939       -13.3591
  35   2.0000      -0.464374       -12.6363
  36   2.0000      -0.461841       -12.5673
  37   2.0000      -0.442325       -12.0363
  38   2.0000      -0.429158       -11.6780
  39   2.0000      -0.426285       -11.5998
  40   2.0000      -0.421551       -11.4710
  41   2.0000      -0.393315       -10.7026
  42   2.0000      -0.390953       -10.6384
  43   2.0000      -0.378179       -10.2908
  44   2.0000      -0.353314        -9.6142
  45   2.0000      -0.335103        -9.1186
  46   2.0000      -0.326332        -8.8800
  47   2.0000      -0.303775        -8.2661
  48   2.0000      -0.295577        -8.0430
  49   2.0000      -0.262798        -7.1511
  50   2.0000      -0.248402        -6.7594
  51   2.0000      -0.233748        -6.3606
  52   2.0000      -0.212991        -5.7958
  53   2.0000      -0.210810        -5.7364
  54   2.0000      -0.196596        -5.3496
  55   2.0000      -0.158239        -4.3059
  56   0.0000       0.077535         2.1098
  57   0.0000       0.096216         2.6182
  58   0.0000       0.099969         2.7203
  59   0.0000       0.106721         2.9040
  60   0.0000       0.113533         3.0894

MULLIKEN ATOMIC CHARGES
-----------------------
   0 C :    0.863801
   1 C :   -0.931660
   2 H :    0.419669
   3 C :   -0.337733
   4 H :    0.261235
   5 C :    1.840698
   6 C :    0.449877
   7 C :   -1.253575
   8 H :    0.162901
   9 C :   -0.703362
  10 H :    0.435492
  11 S :    1.871771
  12 O :   -1.012792
  13 O :   -1.007295
  14 N :   -1.066926
  15 H :    0.113746
  16 O :   -0.359225
  17 O :   -0.953128
  18 C :   -0.865919
  19 H :    0.343208
  20 H :    0.357912
  21 H :    0.371303
Sum of atomic charges:   -1.0000000

LOEWDIN ATOMIC CHARGES
----------------------
   0 C :   -0.232380
   1 C :    0.162124
   2 H :   -0.200243
   3 C :    0.194049
   4 H :   -0.196415
   5 C :   -0.157981
   6 C :   -0.840009
   7 C :    0.191458
   8 H :   -0.187700
   9 C :    0.162930
  10 H :   -0.209368
  11 S :   -0.137682
  12 O :   -0.016596
  13 O :   -0.013094
  14 N :    0.278987
  15 H :   -0.594398
  16 O :    0.568650
  17 O :    0.465945
  18 C :    0.319319
  19 H :   -0.189267
  20 H :   -0.184139
  21 H :   -0.184190

  Mayer bond orders larger than 0.100000
B(  0-C ,  1-C ) :   1.0873 B(  0-C ,  9-C ) :   1.0382 B(  0-C , 11-S ) :   0.8805
B(  0-C , 12-O ) :   0.1183 B(  0-C , 14-N ) :   0.2290 B(  1-C ,  2-H ) :   0.7447
B(  1-C ,  3-C ) :   1.1825 B(  1-C ,  7-C ) :   0.1401 B(  1-C , 14-N ) :  -0.1366
B(  3-C ,  4-H ) :   1.2162 B(  3-C ,  5-C ) :   0.4920 B(  3-C ,  6-C ) :   0.2278
B(  3-C ,  7-C ) :  -0.6066 B(  3-C , 16-O ) :  -0.1579 B(  3-C , 17-O ) :  -0.1291
B(  4-H ,  5-C ) :  -0.2491 B(  4-H ,  7-C ) :   0.1598 B(  4-H ,  8-H ) :   0.1131
B(  5-C ,  6-C ) :   0.1376 B(  5-C ,  8-H ) :  -0.1848 B(  5-C , 16-O ) :   0.1378
B(  6-C ,  7-C ) :   0.4702 B(  6-C , 16-O ) :   1.0060 B(  6-C , 17-O ) :   1.2241
B(  7-C ,  8-H ) :   1.2816 B(  7-C ,  9-C ) :   1.4863 B(  8-H , 17-O ) :   0.1343
B(  9-C , 10-H ) :   0.7434 B(  9-C , 13-O ) :  -0.1059 B( 11-S , 12-O ) :   1.1600
B( 11-S , 13-O ) :   1.2154 B( 11-S , 14-N ) :   1.3394 B( 14-N , 15-H ) :   0.9351
B( 16-O , 18-C ) :   0.8911 B( 18-C , 19-H ) :   0.9017 B( 18-C , 20-H ) :   0.8842
B( 18-C , 21-H ) :   0.8647

MP2 TOTAL ENERGY:    -1062.397171496 Eh
Dispersion correction           -0.015963041
FINAL SINGLE POINT ENERGY     -1062.413134536549

DIPOLE MOMENT
-------------
                                X             Y             Z
Electronic contribution:      0.79382       1.48546       8.22680
Nuclear contribution   :     -0.84061      -1.39931     -13.29046
                        -----------------------------------------
Total Dipole Moment    :     -0.04679       0.08615      -5.06365
                        -----------------------------------------
Magnitude (a.u.)       :      5.06460
Magnitude (Debye)      :     12.87319

Rotational constants in cm-1:     0.067657     0.008814     0.008197
Rotational constants in MHz :  2028.308245   264.222510   245.729095

                             ****ORCA TERMINATED NORMALLY****
TOTAL RUN TIME: 0 days 0 hours 3 minutes 29 seconds 564 msec
