                         Program Version 5.0.3 -  RELEASE  -
|  1> !PAL8
|  2> !RI-DSD-PBEP86 D3BJ aug-cc-pVTZ aug-cc-pVTZ/C TightSCF
|  3> %maxcore 5000
|  4>
|  5>
|  6> * xyz -1 1
|  7> C -1.1852273615  0.6306974697 -0.8453580414
|  8> C -2.3422888722  0.4136793048 -1.6027317621
|  9> C -3.621047814 -0.0681390053 -0.9937693316
| 10> C -2.3243355695  0.5994882394 -2.9876856209
| 11> H -3.2250682386  0.3831572187 -3.5565958011
| 12> C -1.1706025452  1.0493418255 -3.6220202834
| 13> C -0.0211033117  1.286548689 -2.866300007
| 14> H  0.8890047913  1.6274393832 -3.3543523129
| 15> C -0.0277317022  1.0649648686 -1.491578834
| 16> H  0.8669978732  1.199096667 -0.8906132158
| 17> S -1.1016365556  0.3385137348  0.9689736099
| 18> O -2.0125445365 -0.8271117998  1.1246212081
| 19> O  0.332504109  0.0697518968  1.1765319592
| 20> N -1.5255889981  1.649319645  1.7002693171
| 21> H -2.5421307077  1.7087603549  1.6167173831
| 22> O -4.2606064848 -1.0092956494 -1.4059036303
| 23> O -4.0310822242  0.7189679357  0.0133108167
| 24> C -4.9975046744  0.1310446733  0.8789498653
| 25> H -1.1647457248  1.2028667435 -4.6979281597
| 26> H -5.2230927414  0.8907229692  1.6281223876
| 27> H -4.5473700603 -0.7474365528  1.3493919024
| 28> H -5.898447651 -0.1449366117  0.3249575507
| 29> *
| 30>
| 31>                          ****END OF INPUT****

CARTESIAN COORDINATES (ANGSTROEM)
---------------------------------
  C     -1.185227    0.630697   -0.845358
  C     -2.342289    0.413679   -1.602732
  C     -3.621048   -0.068139   -0.993769
  C     -2.324336    0.599488   -2.987686
  H     -3.225068    0.383157   -3.556596
  C     -1.170603    1.049342   -3.622020
  C     -0.021103    1.286549   -2.866300
  H      0.889005    1.627439   -3.354352
  C     -0.027732    1.064965   -1.491579
  H      0.866998    1.199097   -0.890613
  S     -1.101637    0.338514    0.968974
  O     -2.012545   -0.827112    1.124621
  O      0.332504    0.069752    1.176532
  N     -1.525589    1.649320    1.700269
  H     -2.542131    1.708760    1.616717
  O     -4.260606   -1.009296   -1.405904
  O     -4.031082    0.718968    0.013311
  C     -4.997505    0.131045    0.878950
  H     -1.164746    1.202867   -4.697928
  H     -5.223093    0.890723    1.628122
  H     -4.547370   -0.747437    1.349392
  H     -5.898448   -0.144937    0.324958

 Total Charge           Charge          ....   -1
 Multiplicity           Mult            ....    1
 Number of Electrons    NEL             ....  112
 Basis Dimension        Dim             ....  832

ORBITAL ENERGIES
----------------

  NO   OCC          E(Eh)            E(eV)
   0   2.0000     -90.847430     -2472.0842
   1   2.0000     -19.951515      -542.9083
   2   2.0000     -19.896235      -541.4041
   3   2.0000     -19.828166      -539.5518
   4   2.0000     -19.826511      -539.5068
   5   2.0000     -14.884898      -405.0387
   6   2.0000     -10.862879      -295.5940
   7   2.0000     -10.769991      -293.0664
   8   2.0000     -10.744604      -292.3755
   9   2.0000     -10.740992      -292.2773
  10   2.0000     -10.739928      -292.2483
  11   2.0000     -10.739378      -292.2333
  12   2.0000     -10.738359      -292.2056
  13   2.0000     -10.726594      -291.8855
  14   2.0000      -8.589141      -233.7224
  15   2.0000      -6.375601      -173.4889
  16   2.0000      -6.373579      -173.4339
  17   2.0000      -6.372579      -173.4067
  18   2.0000      -1.221330       -33.2341
  19   2.0000      -1.138021       -30.9671
  20   2.0000      -1.122748       -30.5515
  21   2.0000      -1.022170       -27.8147
  22   2.0000      -0.947730       -25.7890
  23   2.0000      -0.881257       -23.9802
  24   2.0000      -0.839422       -22.8418
  25   2.0000      -0.818041       -22.2600
  26   2.0000      -0.770719       -20.9723
  27   2.0000      -0.673081       -18.3155
  28   2.0000      -0.652546       -17.7567
  29   2.0000      -0.595451       -16.2031
  30   2.0000      -0.575271       -15.6539
  31   2.0000      -0.544005       -14.8031
  32   2.0000      -0.501560       -13.6482
  33   2.0000      -0.493570       -13.4307
  34   2.0000      -0.489979       -13.3330
  35   2.0000      -0.461522       -12.5587
  36   2.0000      -0.459749       -12.5104
  37   2.0000      -0.436328       -11.8731
  38   2.0000      -0.423998       -11.5376
  39   2.0000      -0.419120       -11.4048
  40   2.0000      -0.392238       -10.6733
  41   2.0000      -0.380117       -10.3435
  42   2.0000      -0.367711       -10.0059
  43   2.0000      -0.355530        -9.6745
  44   2.0000      -0.354038        -9.6339
  45   2.0000      -0.342316        -9.3149
  46   2.0000      -0.299244        -8.1428
  47   2.0000      -0.283354        -7.7104
  48   2.0000      -0.278458        -7.5772
  49   2.0000      -0.262250        -7.1362
  50   2.0000      -0.246186        -6.6991
  51   2.0000      -0.234897        -6.3919
  52   2.0000      -0.209816        -5.7094
  53   2.0000      -0.206880        -5.6295
  54   2.0000      -0.197690        -5.3794
  55   2.0000      -0.156616        -4.2617
  56   0.0000       0.088446         2.4067
  57   0.0000       0.098638         2.6841
  58   0.0000       0.103021         2.8033
  59   0.0000       0.114812         3.1242
  60   0.0000       0.122365         3.3297

MULLIKEN ATOMIC CHARGES
-----------------------
   0 C :    0.173783
   1 C :    1.381667
   2 C :    0.713835
   3 C :   -0.952039
   4 H :    0.097300
   5 C :   -0.469798
   6 C :   -0.320584
   7 H :    0.464453
   8 C :   -0.885546
   9 H :    0.428095
  10 S :    1.997220
  11 O :   -1.078914
  12 O :   -1.036023
  13 N :   -1.169231
  14 H :    0.231223
  15 O :   -0.893956
  16 O :   -0.387841
  17 C :   -0.955696
  18 H :    0.594804
  19 H :    0.337779
  20 H :    0.368945
  21 H :    0.360526
Sum of atomic charges:   -1.0000000

LOEWDIN ATOMIC CHARGES
----------------------
   0 C :   -0.203913
   1 C :   -0.179588
   2 C :   -0.892065
   3 C :    0.182815
   4 H :   -0.181507
   5 C :    0.178803
   6 C :    0.180734
   7 H :   -0.188724
   8 C :    0.149429
   9 H :   -0.217287
  10 S :   -0.104408
  11 O :    0.021363
  12 O :    0.001420
  13 N :    0.296764
  14 H :   -0.625854
  15 O :    0.470519
  16 O :    0.562649
  17 C :    0.318743
  18 H :   -0.192649
  19 H :   -0.185609
  20 H :   -0.198561
  21 H :   -0.193077

  Mayer bond orders larger than 0.100000
B(  0-C ,  1-C ) :   1.2125 B(  0-C ,  2-C ) :   0.1908 B(  0-C ,  3-C ) :  -0.1358
B(  0-C ,  8-C ) :   1.2089 B(  0-C ,  9-H ) :   0.1034 B(  0-C , 10-S ) :   0.9608
B(  0-C , 12-O ) :   0.1479 B(  0-C , 13-N ) :   0.1800 B(  1-C ,  3-C ) :   0.5190
B(  1-C ,  4-H ) :  -0.1875 B(  1-C ,  5-C ) :   0.1108 B(  1-C , 16-O ) :  -0.3023
B(  2-C ,  3-C ) :   0.1022 B(  2-C , 15-O ) :   1.1007 B(  2-C , 16-O ) :   1.1394
B(  3-C ,  4-H ) :   1.4377 B(  3-C ,  5-C ) :   1.1491 B(  3-C ,  6-C ) :  -0.1791
B(  5-C ,  6-C ) :   1.0943 B(  5-C ,  7-H ) :  -0.1167 B(  5-C ,  8-C ) :   0.1061
B(  5-C , 18-H ) :   0.5698 B(  6-C ,  7-H ) :   0.8085 B(  6-C ,  8-C ) :   0.9102
B(  8-C ,  9-H ) :   0.7715 B( 10-S , 11-O ) :   1.2114 B( 10-S , 12-O ) :   1.0434
B( 10-S , 13-N ) :   1.3439 B( 11-O , 13-N ) :   0.1050 B( 13-N , 14-H ) :   0.8099
B( 16-O , 17-C ) :   0.9725 B( 17-C , 19-H ) :   0.9042 B( 17-C , 20-H ) :   0.8558
B( 17-C , 21-H ) :   0.8697

MP2 TOTAL ENERGY:    -1062.388148498 Eh
Dispersion correction           -0.017128728
FINAL SINGLE POINT ENERGY     -1062.405277226336

DIPOLE MOMENT
-------------
                                X             Y             Z
Electronic contribution:      3.27589      -2.00711       0.99688
Nuclear contribution   :     -4.69443       2.74306      -3.57055
                        -----------------------------------------
Total Dipole Moment    :     -1.41854       0.73595      -2.57367
                        -----------------------------------------
Magnitude (a.u.)       :      3.02947
Magnitude (Debye)      :      7.70029

Rotational constants in cm-1:     0.026299     0.023266     0.014068
Rotational constants in MHz :   788.433276   697.511004   421.740660

                             ****ORCA TERMINATED NORMALLY****
TOTAL RUN TIME: 0 days 0 hours 3 minutes 46 seconds 836 msec
