                         Program Version 5.0.3 -  RELEASE  -
|  1> !PAL8
|  2> !RI-DSD-PBEP86 D3BJ aug-cc-pVTZ aug-cc-pVTZ/C TightSCF
|  3> %maxcore 5000
|  4>
|  5> * xyz -1 1
|  6> C -1.3557006117  0.7546971654 -0.8316832431
|  7> C -2.5303683713  0.8271414576 -1.5798479823
|  8> H -3.4811300575  0.7036751284 -1.0686144662
|  9> C -2.4725656169  1.0751992194 -2.9483183399
| 10> H -3.376594128  1.1447175996 -3.5469352294
| 11> C -1.2385044618  1.2403285548 -3.5839150267
| 12> C -1.2325650292  1.4607392226 -5.0608785567
| 13> C -0.0629193093  1.1910260888 -2.8212709173
| 14> H  0.9025110138  1.3815175841 -3.2860804124
| 15> C -0.122315372  0.953080034 -1.4528484608
| 16> H  0.7757008108  0.9319472141 -0.8419939071
| 17> S -1.4063186625  0.3078867683  0.936097589
| 18> O -0.2439417108  1.0320823433  1.4821131659
| 19> O -2.7512154694  0.7822230226  1.347518257
| 20> N -1.1913059781 -1.2400279237  1.0220691343
| 21> H -2.1129247595 -1.6651985335  0.9015108356
| 22> N -0.0690366344  1.1410294972 -5.7121383898
| 23> O -2.1960639942  1.8969345486 -5.6814678884
| 24> C -0.0136350328  1.2163112315 -7.1563145756
| 25> H  1.0124448209  1.0321976105 -7.4817225304
| 26> H -0.3203010451  2.2137094499 -7.478800688
| 27> H -0.684209002  0.4889541 -7.6303092138
| 28> H  0.5911276012  0.5470176168 -5.2322681538
| 29>
| 30> *
| 31>
| 32>                          ****END OF INPUT****

CARTESIAN COORDINATES (ANGSTROEM)
---------------------------------
  C     -1.355701    0.754697   -0.831683
  C     -2.530368    0.827141   -1.579848
  H     -3.481130    0.703675   -1.068614
  C     -2.472566    1.075199   -2.948318
  H     -3.376594    1.144718   -3.546935
  C     -1.238504    1.240329   -3.583915
  C     -1.232565    1.460739   -5.060879
  C     -0.062919    1.191026   -2.821271
  H      0.902511    1.381518   -3.286080
  C     -0.122315    0.953080   -1.452848
  H      0.775701    0.931947   -0.841994
  S     -1.406319    0.307887    0.936098
  O     -0.243942    1.032082    1.482113
  O     -2.751215    0.782223    1.347518
  N     -1.191306   -1.240028    1.022069
  H     -2.112925   -1.665199    0.901511
  N     -0.069037    1.141029   -5.712138
  O     -2.196064    1.896935   -5.681468
  C     -0.013635    1.216311   -7.156315
  H      1.012445    1.032198   -7.481723
  H     -0.320301    2.213709   -7.478801
  H     -0.684209    0.488954   -7.630309
  H      0.591128    0.547018   -5.232268

 Total Charge           Charge          ....   -1
 Multiplicity           Mult            ....    1
 Number of Electrons    NEL             ....  112
 Basis Dimension        Dim             ....  855

ORBITAL ENERGIES
----------------

  NO   OCC          E(Eh)            E(eV)
   0   2.0000     -90.846344     -2472.0547
   1   2.0000     -19.898424      -541.4636
   2   2.0000     -19.828520      -539.5615
   3   2.0000     -19.827122      -539.5234
   4   2.0000     -15.036835      -409.1731
   5   2.0000     -14.887109      -405.0988
   6   2.0000     -10.856376      -295.4170
   7   2.0000     -10.788651      -293.5741
   8   2.0000     -10.747700      -292.4598
   9   2.0000     -10.746303      -292.4218
  10   2.0000     -10.739412      -292.2343
  11   2.0000     -10.737289      -292.1765
  12   2.0000     -10.729984      -291.9777
  13   2.0000     -10.728794      -291.9453
  14   2.0000      -8.588235      -233.6978
  15   2.0000      -6.374571      -173.4609
  16   2.0000      -6.372720      -173.4105
  17   2.0000      -6.371779      -173.3849
  18   2.0000      -1.170368       -31.8473
  19   2.0000      -1.137824       -30.9618
  20   2.0000      -1.035969       -28.1902
  21   2.0000      -1.022518       -27.8241
  22   2.0000      -0.948706       -25.8156
  23   2.0000      -0.880731       -23.9659
  24   2.0000      -0.840538       -22.8722
  25   2.0000      -0.819340       -22.2954
  26   2.0000      -0.781610       -21.2687
  27   2.0000      -0.682160       -18.5625
  28   2.0000      -0.648270       -17.6403
  29   2.0000      -0.628126       -17.0922
  30   2.0000      -0.576353       -15.6834
  31   2.0000      -0.570088       -15.5129
  32   2.0000      -0.503580       -13.7031
  33   2.0000      -0.492860       -13.4114
  34   2.0000      -0.486746       -13.2450
  35   2.0000      -0.461813       -12.5666
  36   2.0000      -0.456881       -12.4324
  37   2.0000      -0.440890       -11.9972
  38   2.0000      -0.429392       -11.6843
  39   2.0000      -0.425560       -11.5801
  40   2.0000      -0.417828       -11.3697
  41   2.0000      -0.403875       -10.9900
  42   2.0000      -0.390899       -10.6369
  43   2.0000      -0.378741       -10.3061
  44   2.0000      -0.350080        -9.5262
  45   2.0000      -0.335311        -9.1243
  46   2.0000      -0.294905        -8.0248
  47   2.0000      -0.283277        -7.7084
  48   2.0000      -0.265479        -7.2240
  49   2.0000      -0.261998        -7.1293
  50   2.0000      -0.247187        -6.7263
  51   2.0000      -0.232775        -6.3341
  52   2.0000      -0.212463        -5.7814
  53   2.0000      -0.209292        -5.6951
  54   2.0000      -0.195813        -5.3284
  55   2.0000      -0.157051        -4.2736
  56   0.0000       0.074834         2.0363
  57   0.0000       0.093241         2.5372
  58   0.0000       0.096638         2.6296
  59   0.0000       0.104682         2.8486
  60   0.0000       0.112829         3.0702

MULLIKEN ATOMIC CHARGES
-----------------------
   0 C :    0.878524
   1 C :   -0.737623
   2 H :    0.415791
   3 C :   -1.104273
   4 H :    0.164861
   5 C :    1.978026
   6 C :    0.301416
   7 C :   -0.531242
   8 H :    0.159864
   9 C :   -1.059214
  10 H :    0.431418
  11 S :    1.887791
  12 O :   -1.015430
  13 O :   -1.009475
  14 N :   -1.078056
  15 H :    0.116395
  16 N :   -0.168344
  17 O :   -0.866100
  18 C :   -1.002463
  19 H :    0.351300
  20 H :    0.385263
  21 H :    0.303959
  22 H :    0.197610
Sum of atomic charges:   -1.0000000

LOEWDIN ATOMIC CHARGES
----------------------
   0 C :   -0.234920
   1 C :    0.163647
   2 H :   -0.206396
   3 C :    0.197077
   4 H :   -0.186760
   5 C :   -0.134972
   6 C :   -0.690675
   7 C :    0.193190
   8 H :   -0.190503
   9 C :    0.160724
  10 H :   -0.201913
  11 S :   -0.138028
  12 O :   -0.013263
  13 O :   -0.017815
  14 N :    0.277208
  15 H :   -0.595682
  16 N :    0.521917
  17 O :    0.455555
  18 C :    0.465137
  19 H :   -0.173782
  20 H :   -0.177179
  21 H :   -0.163270
  22 H :   -0.309297

  Mayer bond orders larger than 0.100000
B(  0-C ,  1-C ) :   0.9689 B(  0-C ,  9-C ) :   1.0230 B(  0-C , 11-S ) :   0.8560
B(  0-C , 12-O ) :   0.1043 B(  0-C , 13-O ) :   0.1349 B(  0-C , 14-N ) :   0.2444
B(  1-C ,  2-H ) :   0.7755 B(  1-C ,  3-C ) :   1.4385 B(  3-C ,  4-H ) :   1.3061
B(  3-C ,  5-C ) :   0.2964 B(  3-C ,  6-C ) :   0.2955 B(  3-C ,  7-C ) :  -0.4294
B(  3-C ,  9-C ) :   0.1410 B(  4-H ,  5-C ) :  -0.2108 B(  4-H , 17-O ) :   0.1117
B(  5-C ,  7-C ) :   0.5407 B(  5-C ,  8-H ) :  -0.2040 B(  5-C ,  9-C ) :  -0.1272
B(  5-C , 16-N ) :  -0.1149 B(  6-C ,  7-C ) :   0.1193 B(  6-C , 16-N ) :   1.1087
B(  6-C , 17-O ) :   1.2181 B(  6-C , 18-C ) :  -0.1013 B(  7-C ,  8-H ) :   1.3992
B(  7-C ,  9-C ) :   1.3925 B(  9-C , 10-H ) :   0.7046 B(  9-C , 14-N ) :  -0.1362
B( 11-S , 12-O ) :   1.1899 B( 11-S , 13-O ) :   1.1688 B( 11-S , 14-N ) :   1.3512
B( 11-S , 15-H ) :   0.1008 B( 14-N , 15-H ) :   0.9280 B( 16-N , 18-C ) :   0.9906
B( 16-N , 22-H ) :   0.9384 B( 18-C , 19-H ) :   0.8882 B( 18-C , 20-H ) :   0.8573
B( 18-C , 21-H ) :   0.9333

MP2 TOTAL ENERGY:    -1042.538528614 Eh
Dispersion correction           -0.016750686
FINAL SINGLE POINT ENERGY     -1042.555279299472

DIPOLE MOMENT
-------------
                                X             Y             Z
Electronic contribution:     -3.02834       0.91833      11.86560
Nuclear contribution   :      4.04429      -0.72173     -16.76237
                        -----------------------------------------
Total Dipole Moment    :      1.01595       0.19660      -4.89676
                        -----------------------------------------
Magnitude (a.u.)       :      5.00491
Magnitude (Debye)      :     12.72146

Rotational constants in cm-1:     0.066292     0.008743     0.008183
Rotational constants in MHz :  1987.379216   262.110167   245.320641

                             ****ORCA TERMINATED NORMALLY****
TOTAL RUN TIME: 0 days 0 hours 3 minutes 59 seconds 997 msec
