                         Program Version 5.0.3 -  RELEASE  -
|  1> !PAL8
|  2> !RI-DSD-PBEP86 D3BJ aug-cc-pVTZ aug-cc-pVTZ/C TightSCF
|  3> %maxcore 5000
|  4>
|  5> * xyz -1 1
|  6> C -1.2032460887  0.6120432556 -0.6216504344
|  7> S -1.698129791  0.3716193557  1.1656926481
|  8> O -1.8093658396 -1.1009622682  1.2014874509
|  9> O -0.555338303  0.9823631272  1.852663457
| 10> N -3.0128222475  1.1721440635  1.3632087924
| 11> H -3.774653295  0.5576421427  1.0710471608
| 12> F -2.1757823035  0.1794364721 -1.4523091137
| 13> F -0.0860390157 -0.0612754171 -0.947723029
| 14> F -0.9837301158  1.9026062685 -0.9211209321
| 15> *
| 16>
| 17>
| 18>
| 19>                          ****END OF INPUT****

CARTESIAN COORDINATES (ANGSTROEM)
---------------------------------
  C     -1.203246    0.612043   -0.621650
  S     -1.698130    0.371619    1.165693
  O     -1.809366   -1.100962    1.201487
  O     -0.555338    0.982363    1.852663
  N     -3.012822    1.172144    1.363209
  H     -3.774653    0.557642    1.071047
  F     -2.175782    0.179436   -1.452309
  F     -0.086039   -0.061275   -0.947723
  F     -0.983730    1.902606   -0.921121

 Total Charge           Charge          ....   -1
 Multiplicity           Mult            ....    1
 Number of Electrons    NEL             ....   74
 Basis Dimension        Dim             ....  395

ORBITAL ENERGIES
----------------

  NO   OCC          E(Eh)            E(eV)
   0   2.0000     -90.855501     -2472.3039
   1   2.0000     -25.590591      -696.3554
   2   2.0000     -25.589855      -696.3353
   3   2.0000     -25.589528      -696.3264
   4   2.0000     -19.837285      -539.8000
   5   2.0000     -19.836494      -539.7784
   6   2.0000     -14.896933      -405.3662
   7   2.0000     -10.946046      -297.8571
   8   2.0000      -8.597455      -233.9486
   9   2.0000      -6.384296      -173.7255
  10   2.0000      -6.381658      -173.6537
  11   2.0000      -6.380679      -173.6271
  12   2.0000      -1.435315       -39.0569
  13   2.0000      -1.342867       -36.5413
  14   2.0000      -1.342786       -36.5391
  15   2.0000      -1.148760       -31.2593
  16   2.0000      -1.032968       -28.1085
  17   2.0000      -0.894180       -24.3319
  18   2.0000      -0.746493       -20.3131
  19   2.0000      -0.631924       -17.1955
  20   2.0000      -0.595172       -16.1954
  21   2.0000      -0.594860       -16.1870
  22   2.0000      -0.531195       -14.4545
  23   2.0000      -0.482708       -13.1352
  24   2.0000      -0.482031       -13.1167
  25   2.0000      -0.443730       -12.0745
  26   2.0000      -0.439361       -11.9556
  27   2.0000      -0.433520       -11.7967
  28   2.0000      -0.421059       -11.4576
  29   2.0000      -0.417775       -11.3682
  30   2.0000      -0.396572       -10.7913
  31   2.0000      -0.303070        -8.2470
  32   2.0000      -0.269280        -7.3275
  33   2.0000      -0.254315        -6.9203
  34   2.0000      -0.233768        -6.3612
  35   2.0000      -0.204798        -5.5728
  36   2.0000      -0.181109        -4.9282
  37   0.0000       0.131152         3.5688
  38   0.0000       0.159355         4.3363
  39   0.0000       0.180305         4.9063
  40   0.0000       0.182990         4.9794
  41   0.0000       0.195418         5.3176

MULLIKEN ATOMIC CHARGES
-----------------------
   0 C :    0.893541
   1 S :    2.039430
   2 O :   -0.956000
   3 O :   -0.955209
   4 N :   -1.012658
   5 H :    0.136832
   6 F :   -0.383962
   7 F :   -0.387130
   8 F :   -0.374844
Sum of atomic charges:   -1.0000000

LOEWDIN ATOMIC CHARGES
----------------------
   0 C :   -1.671897
   1 S :   -0.218601
   2 O :   -0.039793
   3 O :   -0.034325
   4 N :    0.262701
   5 H :   -0.598391
   6 F :    0.427854
   7 F :    0.434627
   8 F :    0.437824

  Mayer bond orders larger than 0.100000
B(  0-C ,  1-S ) :   0.8081 B(  0-C ,  4-N ) :   0.1264 B(  0-C ,  6-F ) :   0.7862
B(  0-C ,  7-F ) :   0.7977 B(  0-C ,  8-F ) :   0.7926 B(  1-S ,  2-O ) :   1.2602
B(  1-S ,  3-O ) :   1.2946 B(  1-S ,  4-N ) :   1.2961 B(  2-O ,  4-N ) :   0.1030
B(  3-O ,  4-N ) :   0.1228 B(  4-N ,  5-H ) :   0.9379

MP2 TOTAL ENERGY:     -940.840575064 Eh
Dispersion correction           -0.005292379
FINAL SINGLE POINT ENERGY      -940.845867442693

DIPOLE MOMENT
-------------
                                X             Y             Z
Electronic contribution:      3.22593       0.38055      -6.25983
Nuclear contribution   :     -3.19376      -0.45367       4.54522
                        -----------------------------------------
Total Dipole Moment    :      0.03216      -0.07312      -1.71462
                        -----------------------------------------
Magnitude (a.u.)       :      1.71648
Magnitude (Debye)      :      4.36293

Rotational constants in cm-1:     0.088245     0.051770     0.051583
Rotational constants in MHz :  2645.529288  1552.019972  1546.404990

                             ****ORCA TERMINATED NORMALLY****
TOTAL RUN TIME: 0 days 0 hours 0 minutes 37 seconds 927 msec
