                         Program Version 5.0.3 -  RELEASE  -
|  1> !PAL8
|  2> !RI-DSD-PBEP86 D3BJ aug-cc-pVTZ aug-cc-pVTZ/C TightSCF
|  3> %maxcore 5000
|  4>
|  5> * xyz -1 1
|  6> S -1.7466106132  0.2446777669  1.2761818435
|  7> O -0.5941173609  0.79465591  2.0466593639
|  8> O -2.9880757257  1.0492947701  1.2971652643
|  9> N -2.0468044505 -1.2737559402  1.5502368692
| 10> H -1.1682787528 -1.6757518981  1.8829093563
| 11> C -1.1909487466  0.4154980572 -0.4483330659
| 12> H -1.9749037012  0.0182026902 -1.0964214395
| 13> H -0.2657883525 -0.1523184248 -0.5755920846
| 14> H -1.0191902964  1.4748960685 -0.6555851072
| 15> *
| 16>
| 17>
| 18>
| 19>                          ****END OF INPUT****

CARTESIAN COORDINATES (ANGSTROEM)
---------------------------------
  S     -1.746611    0.244678    1.276182
  O     -0.594117    0.794656    2.046659
  O     -2.988076    1.049295    1.297165
  N     -2.046804   -1.273756    1.550237
  H     -1.168279   -1.675752    1.882909
  C     -1.190949    0.415498   -0.448333
  H     -1.974904    0.018203   -1.096421
  H     -0.265788   -0.152318   -0.575592
  H     -1.019190    1.474896   -0.655585

 Total Charge           Charge          ....   -1
 Multiplicity           Mult            ....    1
 Number of Electrons    NEL             ....   50
 Basis Dimension        Dim             ....  326

ORBITAL ENERGIES
----------------

  NO   OCC          E(Eh)            E(eV)
   0   2.0000     -90.818505     -2471.2972
   1   2.0000     -19.802119      -538.8431
   2   2.0000     -19.800793      -538.8070
   3   2.0000     -14.862332      -404.4246
   4   2.0000     -10.687070      -290.8100
   5   2.0000      -8.560760      -232.9501
   6   2.0000      -6.346511      -172.6973
   7   2.0000      -6.345460      -172.6687
   8   2.0000      -6.344422      -172.6405
   9   2.0000      -1.107623       -30.1400
  10   2.0000      -0.992523       -27.0079
  11   2.0000      -0.853732       -23.2312
  12   2.0000      -0.734798       -19.9949
  13   2.0000      -0.531403       -14.4602
  14   2.0000      -0.419313       -11.4101
  15   2.0000      -0.400353       -10.8942
  16   2.0000      -0.390670       -10.6307
  17   2.0000      -0.359585        -9.7848
  18   2.0000      -0.345107        -9.3908
  19   2.0000      -0.269670        -7.3381
  20   2.0000      -0.234000        -6.3675
  21   2.0000      -0.214185        -5.8283
  22   2.0000      -0.196142        -5.3373
  23   2.0000      -0.170128        -4.6294
  24   2.0000      -0.141258        -3.8438
  25   0.0000       0.120024         3.2660
  26   0.0000       0.132009         3.5921
  27   0.0000       0.136460         3.7133
  28   0.0000       0.144917         3.9434
  29   0.0000       0.188008         5.1159

MULLIKEN ATOMIC CHARGES
-----------------------
   0 S :    2.076340
   1 O :   -0.996658
   2 O :   -0.989913
   3 N :   -1.037967
   4 H :    0.109473
   5 C :   -0.977998
   6 H :    0.284501
   7 H :    0.276815
   8 H :    0.255408
Sum of atomic charges:   -1.0000000

LOEWDIN ATOMIC CHARGES
----------------------
   0 S :   -0.192603
   1 O :   -0.063708
   2 O :   -0.056494
   3 N :    0.247866
   4 H :   -0.616684
   5 C :    0.401427
   6 H :   -0.240789
   7 H :   -0.239383
   8 H :   -0.239632

  Mayer bond orders larger than 0.100000
B(  0-S ,  1-O ) :   1.2161 B(  0-S ,  2-O ) :   1.2532 B(  0-S ,  3-N ) :   1.2441
B(  0-S ,  5-C ) :   0.8044 B(  3-N ,  4-H ) :   0.9590 B(  5-C ,  6-H ) :   0.8996
B(  5-C ,  7-H ) :   0.9070 B(  5-C ,  8-H ) :   0.9379

MP2 TOTAL ENERGY:     -643.344060772 Eh
Dispersion correction           -0.004843334
FINAL SINGLE POINT ENERGY      -643.348904105977

DIPOLE MOMENT
-------------
                                X             Y             Z
Electronic contribution:     -1.36573       1.26425       3.55483
Nuclear contribution   :      2.25238      -1.26597      -4.80146
                        -----------------------------------------
Total Dipole Moment    :      0.88665      -0.00171      -1.24663
                        -----------------------------------------
Magnitude (a.u.)       :      1.52978
Magnitude (Debye)      :      3.88840

Rotational constants in cm-1:     0.161980     0.150108     0.146622
Rotational constants in MHz :  4856.032896  4500.137597  4395.606453

                             ****ORCA TERMINATED NORMALLY****
TOTAL RUN TIME: 0 days 0 hours 0 minutes 27 seconds 23 msec
