                         Program Version 5.0.3 -  RELEASE  -
|  1> !PAL8
|  2> !RI-DSD-PBEP86 D3BJ aug-cc-pVTZ aug-cc-pVTZ/C TightSCF
|  3> %maxcore 5000
|  4>
|  5>
|  6> * xyz -1 1
|  7> C -0.5361061391  1.0461493986 -1.4284557678
|  8> S -0.6128091342  1.593851985  0.3063645781
|  9> O -2.0389318041  1.438588099  0.6197311382
| 10> O  0.3241450214  0.6124004704  0.9007888234
| 11> N -0.1689373398  3.0827694444  0.3634672836
| 12> H  0.8526459967  3.080753619  0.3840349316
| 13> O -1.3200778538  1.6778688385 -2.3477871986
| 14> C -1.0765360991  1.1349953346 -3.5488867836
| 15> C -0.1293618261  0.1627179888 -3.4212826143
| 16> C  0.2270997528  0.0971054983 -2.0345425009
| 17> S  0.4189329421 -0.8504339542 -4.7317149026
| 18> C -0.3875877817 -2.412804644 -4.4359888428
| 19> O  1.8558237456 -1.0851710398 -4.5861746266
| 20> O -0.1319065614 -0.3073676935 -5.9775598698
| 21> C  0.2319695828 -3.3567201 -3.626252827
| 22> C -0.4256654712 -4.55281319 -3.3602283154
| 23> C -1.6857731316 -4.7946119226 -3.909204492
| 24> C -2.3085036397 -3.8493688831 -4.7400800763
| 25> C -1.6449032325 -2.6521318456 -4.9848509272
| 26> O -2.3703988836 -5.9437262055 -3.6561495677
| 27> C -3.6551300952 -4.1519609266 -5.3435881471
| 28> N -3.5649180481 -5.0755715576 -6.4722305422
| 29> C -2.8866470797 -4.4688506952 -7.6042983159
| 30> C -4.8869772923 -5.5339590373 -6.8534401697
| 31> H -1.6200925779  1.5187419071 -4.3986979556
| 32> H  0.9436252293 -0.5455517112 -1.5456350828
| 33> H  1.216916116 -3.1542953191 -3.2163821712
| 34> H  0.0387177593 -5.3001718788 -2.7203246006
| 35> H -2.101503445 -1.8950714669 -5.6192381684
| 36> H -1.8782585528 -6.4800811418 -3.0188576162
| 37> H -4.1380064456 -3.202107201 -5.6482304888
| 38> H -4.2916104491 -4.6183059818 -4.5842863684
| 39> H -1.8735018987 -4.1705986222 -7.3235430207
| 40> H -3.4211848791 -3.5735996674 -7.9803974662
| 41> H -2.8172980384 -5.1968326334 -8.4182898107
| 42> H -5.3626176587 -6.0357436315 -6.0053551837
| 43> H -4.8036356778 -6.2509977533 -7.676096887
| 44> H -5.5441211097 -4.7045358805 -7.1835724471
| 45> *
| 46>
| 47>                          ****END OF INPUT****

CARTESIAN COORDINATES (ANGSTROEM)
---------------------------------
  C     -0.536106    1.046149   -1.428456
  S     -0.612809    1.593852    0.306365
  O     -2.038932    1.438588    0.619731
  O      0.324145    0.612400    0.900789
  N     -0.168937    3.082769    0.363467
  H      0.852646    3.080754    0.384035
  O     -1.320078    1.677869   -2.347787
  C     -1.076536    1.134995   -3.548887
  C     -0.129362    0.162718   -3.421283
  C      0.227100    0.097105   -2.034543
  S      0.418933   -0.850434   -4.731715
  C     -0.387588   -2.412805   -4.435989
  O      1.855824   -1.085171   -4.586175
  O     -0.131907   -0.307368   -5.977560
  C      0.231970   -3.356720   -3.626253
  C     -0.425665   -4.552813   -3.360228
  C     -1.685773   -4.794612   -3.909204
  C     -2.308504   -3.849369   -4.740080
  C     -1.644903   -2.652132   -4.984851
  O     -2.370399   -5.943726   -3.656150
  C     -3.655130   -4.151961   -5.343588
  N     -3.564918   -5.075572   -6.472231
  C     -2.886647   -4.468851   -7.604298
  C     -4.886977   -5.533959   -6.853440
  H     -1.620093    1.518742   -4.398698
  H      0.943625   -0.545552   -1.545635
  H      1.216916   -3.154295   -3.216382
  H      0.038718   -5.300172   -2.720325
  H     -2.101503   -1.895071   -5.619238
  H     -1.878259   -6.480081   -3.018858
  H     -4.138006   -3.202107   -5.648230
  H     -4.291610   -4.618306   -4.584286
  H     -1.873502   -4.170599   -7.323543
  H     -3.421185   -3.573600   -7.980397
  H     -2.817298   -5.196833   -8.418290
  H     -5.362618   -6.035744   -6.005355
  H     -4.803636   -6.250998   -7.676097
  H     -5.544121   -4.704536   -7.183572

 Total Charge           Charge          ....   -1
 Multiplicity           Mult            ....    1
 Number of Electrons    NEL             ....  188
 Basis Dimension        Dim             .... 1411

ORBITAL ENERGIES
----------------

  NO   OCC          E(Eh)            E(eV)
   0   2.0000     -90.935668     -2474.4853
   1   2.0000     -90.861327     -2472.4624
   2   2.0000     -20.006873      -544.4147
   3   2.0000     -20.002918      -544.3071
   4   2.0000     -19.924426      -542.1712
   5   2.0000     -19.923016      -542.1328
   6   2.0000     -19.838442      -539.8315
   7   2.0000     -19.837060      -539.7939
   8   2.0000     -15.030374      -408.9973
   9   2.0000     -14.897474      -405.3809
  10   2.0000     -10.853667      -295.3433
  11   2.0000     -10.815593      -294.3072
  12   2.0000     -10.799919      -293.8807
  13   2.0000     -10.792864      -293.6888
  14   2.0000     -10.791929      -293.6633
  15   2.0000     -10.791855      -293.6613
  16   2.0000     -10.790462      -293.6234
  17   2.0000     -10.789937      -293.6091
  18   2.0000     -10.785368      -293.4848
  19   2.0000     -10.784269      -293.4549
  20   2.0000     -10.783655      -293.4382
  21   2.0000     -10.769007      -293.0396
  22   2.0000     -10.737885      -292.1927
  23   2.0000      -8.681590      -236.2381
  24   2.0000      -8.602183      -234.0773
  25   2.0000      -6.466775      -175.9699
  26   2.0000      -6.466272      -175.9562
  27   2.0000      -6.465161      -175.9260
  28   2.0000      -6.389131      -173.8571
  29   2.0000      -6.386538      -173.7865
  30   2.0000      -6.385503      -173.7584
  31   2.0000      -1.253002       -34.0959
  32   2.0000      -1.235483       -33.6192
  33   2.0000      -1.232223       -33.5305
  34   2.0000      -1.149681       -31.2844
  35   2.0000      -1.124644       -30.6031
  36   2.0000      -1.068681       -29.0803
  37   2.0000      -1.033730       -28.1292
  38   2.0000      -0.997672       -27.1480
  39   2.0000      -0.915566       -24.9138
  40   2.0000      -0.895777       -24.3753
  41   2.0000      -0.894264       -24.3341
  42   2.0000      -0.872197       -23.7337
  43   2.0000      -0.831492       -22.6261
  44   2.0000      -0.808641       -22.0042
  45   2.0000      -0.799747       -21.7622
  46   2.0000      -0.761043       -20.7090
  47   2.0000      -0.716022       -19.4840
  48   2.0000      -0.696612       -18.9558
  49   2.0000      -0.662623       -18.0309
  50   2.0000      -0.647937       -17.6313
  51   2.0000      -0.625501       -17.0207
  52   2.0000      -0.614032       -16.7087
  53   2.0000      -0.593410       -16.1475
  54   2.0000      -0.564575       -15.3629
  55   2.0000      -0.548397       -14.9226
  56   2.0000      -0.542107       -14.7515
  57   2.0000      -0.527928       -14.3656
  58   2.0000      -0.518501       -14.1091
  59   2.0000      -0.514671       -14.0049
  60   2.0000      -0.494110       -13.4454
  61   2.0000      -0.491361       -13.3706
  62   2.0000      -0.486913       -13.2496
  63   2.0000      -0.484842       -13.1932
  64   2.0000      -0.475384       -12.9359
  65   2.0000      -0.469440       -12.7741
  66   2.0000      -0.467433       -12.7195
  67   2.0000      -0.444549       -12.0968
  68   2.0000      -0.441797       -12.0219
  69   2.0000      -0.434376       -11.8200
  70   2.0000      -0.433001       -11.7825
  71   2.0000      -0.422572       -11.4988
  72   2.0000      -0.414303       -11.2737
  73   2.0000      -0.404725       -11.0131
  74   2.0000      -0.403588       -10.9822
  75   2.0000      -0.398662       -10.8481
  76   2.0000      -0.396864       -10.7992
  77   2.0000      -0.385684       -10.4950
  78   2.0000      -0.377208       -10.2644
  79   2.0000      -0.353139        -9.6094
  80   2.0000      -0.348552        -9.4846
  81   2.0000      -0.326388        -8.8815
  82   2.0000      -0.308817        -8.4033
  83   2.0000      -0.305062        -8.3012
  84   2.0000      -0.282506        -7.6874
  85   2.0000      -0.272133        -7.4051
  86   2.0000      -0.261740        -7.1223
  87   2.0000      -0.260132        -7.0786
  88   2.0000      -0.253525        -6.8988
  89   2.0000      -0.240787        -6.5521
  90   2.0000      -0.234681        -6.3860
  91   2.0000      -0.210492        -5.7278
  92   2.0000      -0.206618        -5.6224
  93   2.0000      -0.169273        -4.6061
  94   0.0000       0.064155         1.7457
  95   0.0000       0.070351         1.9144
  96   0.0000       0.079762         2.1704
  97   0.0000       0.083424         2.2701
  98   0.0000       0.092461         2.5160

MULLIKEN ATOMIC CHARGES
-----------------------
   0 C :    0.555035
   1 S :    2.059536
   2 O :   -0.991032
   3 O :   -1.002048
   4 N :   -1.075332
   5 H :    0.120421
   6 O :   -0.636972
   7 C :   -0.760855
   8 C :    0.373062
   9 C :   -0.911004
  10 S :    2.228710
  11 C :    0.750131
  12 O :   -1.140896
  13 O :   -1.078476
  14 C :   -0.498822
  15 C :   -0.959659
  16 C :    0.396383
  17 C :    1.174475
  18 C :   -0.565059
  19 O :   -0.811750
  20 C :   -0.566396
  21 N :   -0.152346
  22 C :   -1.109943
  23 C :   -1.142816
  24 H :    0.709708
  25 H :    0.306621
  26 H :    0.411191
  27 H :    0.572772
  28 H :    0.063777
  29 H :    0.121263
  30 H :    0.241783
  31 H :    0.290083
  32 H :    0.513584
  33 H :    0.317523
  34 H :    0.246376
  35 H :    0.325957
  36 H :    0.329777
  37 H :    0.295239
Sum of atomic charges:   -1.0000000

LOEWDIN ATOMIC CHARGES
----------------------
   0 C :   -0.475063
   1 S :   -0.173090
   2 O :   -0.024711
   3 O :   -0.020402
   4 N :    0.273769
   5 H :   -0.592367
   6 O :    0.566778
   7 C :   -0.069215
   8 C :   -0.325791
   9 C :    0.116932
  10 S :    0.230541
  11 C :   -0.243148
  12 O :    0.059738
  13 O :    0.059295
  14 C :    0.164310
  15 C :    0.230823
  16 C :   -0.341139
  17 C :   -0.093685
  18 C :    0.176383
  19 O :    0.869939
  20 C :    0.131218
  21 N :    0.240026
  22 C :    0.438077
  23 C :    0.428665
  24 H :   -0.183008
  25 H :   -0.194818
  26 H :   -0.185773
  27 H :   -0.177312
  28 H :   -0.177389
  29 H :   -0.460798
  30 H :   -0.131284
  31 H :   -0.157968
  32 H :   -0.170822
  33 H :   -0.144494
  34 H :   -0.163798
  35 H :   -0.164858
  36 H :   -0.167196
  37 H :   -0.148364

  Mayer bond orders larger than 0.100000
B(  0-C ,  1-S ) :   0.8077 B(  0-C ,  6-O ) :   0.7703 B(  0-C ,  7-C ) :   0.1519
B(  0-C ,  8-C ) :  -0.1862 B(  0-C ,  9-C ) :   1.3397 B(  1-S ,  2-O ) :   1.2657
B(  1-S ,  3-O ) :   1.2267 B(  1-S ,  4-N ) :   1.2597 B(  2-O ,  4-N ) :   0.1065
B(  4-N ,  5-H ) :   0.9274 B(  6-O ,  7-C ) :   1.0097 B(  7-C ,  8-C ) :   0.8409
B(  7-C ,  9-C ) :   0.3426 B(  7-C , 10-S ) :  -0.1175 B(  7-C , 24-H ) :   0.3736
B(  8-C ,  9-C ) :   0.6576 B(  8-C , 10-S ) :   1.3192 B(  8-C , 11-C ) :   0.2227
B(  8-C , 12-O ) :   0.1822 B(  8-C , 13-O ) :   0.1187 B(  9-C , 25-H ) :   1.0833
B( 10-S , 11-C ) :   0.7950 B( 10-S , 12-O ) :   0.7102 B( 10-S , 13-O ) :   0.7885
B( 10-S , 17-C ) :  -0.1236 B( 10-S , 18-C ) :   0.1645 B( 11-C , 12-O ) :   0.2157
B( 11-C , 13-O ) :   0.1632 B( 11-C , 14-C ) :   1.0435 B( 11-C , 15-C ) :   0.1320
B( 11-C , 16-C ) :   0.1691 B( 11-C , 17-C ) :   0.3732 B( 11-C , 18-C ) :   0.4045
B( 11-C , 28-H ) :  -0.1369 B( 12-O , 15-C ) :  -0.1266 B( 13-O , 17-C ) :  -0.1265
B( 14-C , 15-C ) :   1.0365 B( 14-C , 17-C ) :   0.1018 B( 14-C , 18-C ) :  -0.1372
B( 14-C , 26-H ) :   0.8408 B( 15-C , 16-C ) :   1.1299 B( 15-C , 17-C ) :   0.3294
B( 15-C , 18-C ) :  -0.2187 B( 15-C , 19-O ) :  -0.1010 B( 15-C , 27-H ) :   0.4892
B( 16-C , 17-C ) :   1.7490 B( 16-C , 18-C ) :  -0.3704 B( 16-C , 19-O ) :   0.4300
B( 16-C , 20-C ) :   0.2959 B( 16-C , 27-H ) :   0.1489 B( 17-C , 18-C ) :   0.4008
B( 17-C , 21-N ) :  -0.1917 B( 17-C , 23-C ) :  -0.1310 B( 17-C , 28-H ) :  -0.1647
B( 17-C , 30-H ) :  -0.1204 B( 17-C , 31-H ) :  -0.1207 B( 18-C , 21-N ) :  -0.1124
B( 18-C , 28-H ) :   1.4552 B( 19-O , 29-H ) :   1.0733 B( 20-C , 21-N ) :   1.1528
B( 20-C , 23-C ) :   0.1407 B( 20-C , 30-H ) :   0.9984 B( 20-C , 31-H ) :   0.9974
B( 21-N , 22-C ) :   0.8717 B( 21-N , 23-C ) :   0.9806 B( 22-C , 32-H ) :   0.7180
B( 22-C , 33-H ) :   0.9072 B( 22-C , 34-H ) :   1.0506 B( 23-C , 35-H ) :   0.9278
B( 23-C , 36-H ) :   0.9234 B( 23-C , 37-H ) :   0.9309

MP2 TOTAL ENERGY:    -1859.636909623 Eh
Dispersion correction           -0.030024275
FINAL SINGLE POINT ENERGY     -1859.666933898689

DIPOLE MOMENT
-------------
                                X             Y             Z
Electronic contribution:     16.27776      21.33382      18.01078
Nuclear contribution   :    -17.68903     -27.34000     -23.01311
                        -----------------------------------------
Total Dipole Moment    :     -1.41127      -6.00618      -5.00233
                        -----------------------------------------
Magnitude (a.u.)       :      7.94287
Magnitude (Debye)      :     20.18917

Rotational constants in cm-1:     0.013228     0.003405     0.003202
Rotational constants in MHz :   396.575412   102.084816    96.004494

                             ****ORCA TERMINATED NORMALLY****
TOTAL RUN TIME: 0 days 0 hours 13 minutes 22 seconds 219 msec
