                         Program Version 5.0.3 -  RELEASE  -
|  1> !PAL8
|  2> !RI-DSD-PBEP86 D3BJ aug-cc-pVTZ aug-cc-pVTZ/C TightSCF
|  3> %maxcore 5000
|  4>
|  5>
|  6> * xyz -1 1
|  7> C -1.3968341523  1.2954783592 -1.9119140259
|  8> S -1.6749307982  1.480176052 -0.1264366007
|  9> O -0.8572188883  2.6524478072  0.2132936028
| 10> O -3.1467234772  1.660074087 -0.134169828
| 11> N -1.1539641075  0.1946683125  0.5817963975
| 12> H -1.8974938511 -0.5012508405  0.4963604096
| 13> C -2.2793100994  1.2111282984 -2.9448685477
| 14> C -1.4834164499  0.9985197738 -4.1285688753
| 15> C -0.188931401  0.9720980715 -3.6700122134
| 16> O -0.0964184032  1.1495396509 -2.3480370945
| 17> C -1.5154945053  0.8364193617 -5.5536547677
| 18> C -0.2690032526  0.6938752296 -6.0930768781
| 19> S  1.017036504  0.7699998279 -4.8911401884
| 20> H -3.3493018628  1.303841069 -2.8342312807
| 21> H -2.4133275458  0.8237103948 -6.1638888987
| 22> C  0.0856900523  0.476453826 -7.5304010692
| 23> N  1.0715923352  1.4352630613 -8.0196183052
| 24> C  0.5795938797  2.8070903866 -7.9672045057
| 25> C  1.6657733576  3.755596336 -8.4472854014
| 26> O  2.0876198949  3.4336661173 -9.7629533124
| 27> C  2.5642480705  2.1041917408 -9.8223884955
| 28> C  1.4964916988  1.1168438166 -9.3735499123
| 29> H -0.8516055501  0.524106449 -8.1210077859
| 30> H  0.5116529263 -0.5249297037 -7.6789470085
| 31> H  0.3018055647  3.0481319996 -6.9362642079
| 32> H -0.3206022279  2.9260501307 -8.6037016565
| 33> H  2.5247538309  3.7041453781 -7.7605963891
| 34> H  1.2970832709  4.7834911886 -8.483391118
| 35> H  3.4513114659  1.997780021 -9.1780237705
| 36> H  2.8518129551  1.9215513315 -10.861408819
| 37> H  1.90394924  0.0988236865 -9.3897707819
| 38> H  0.6444445257  1.1578987793 -10.0826846714
| 39> *
| 40>
| 41>                          ****END OF INPUT****

CARTESIAN COORDINATES (ANGSTROEM)
---------------------------------
  C     -1.396834    1.295478   -1.911914
  S     -1.674931    1.480176   -0.126437
  O     -0.857219    2.652448    0.213294
  O     -3.146723    1.660074   -0.134170
  N     -1.153964    0.194668    0.581796
  H     -1.897494   -0.501251    0.496360
  C     -2.279310    1.211128   -2.944869
  C     -1.483416    0.998520   -4.128569
  C     -0.188931    0.972098   -3.670012
  O     -0.096418    1.149540   -2.348037
  C     -1.515495    0.836419   -5.553655
  C     -0.269003    0.693875   -6.093077
  S      1.017037    0.770000   -4.891140
  H     -3.349302    1.303841   -2.834231
  H     -2.413328    0.823710   -6.163889
  C      0.085690    0.476454   -7.530401
  N      1.071592    1.435263   -8.019618
  C      0.579594    2.807090   -7.967205
  C      1.665773    3.755596   -8.447285
  O      2.087620    3.433666   -9.762953
  C      2.564248    2.104192   -9.822388
  C      1.496492    1.116844   -9.373550
  H     -0.851606    0.524106   -8.121008
  H      0.511653   -0.524930   -7.678947
  H      0.301806    3.048132   -6.936264
  H     -0.320602    2.926050   -8.603702
  H      2.524754    3.704145   -7.760596
  H      1.297083    4.783491   -8.483391
  H      3.451311    1.997780   -9.178024
  H      2.851813    1.921551  -10.861409
  H      1.903949    0.098824   -9.389771
  H      0.644445    1.157899  -10.082685

 Total Charge           Charge          ....   -1
 Multiplicity           Mult            ....    1
 Number of Electrons    NEL             ....  158
 Basis Dimension        Dim             .... 1181

ORBITAL ENERGIES
----------------

  NO   OCC          E(Eh)            E(eV)
   0   2.0000     -90.851802     -2472.2032
   1   2.0000     -90.746746     -2469.3445
   2   2.0000     -19.986819      -543.8690
   3   2.0000     -19.964960      -543.2742
   4   2.0000     -19.829263      -539.5817
   5   2.0000     -19.827631      -539.5373
   6   2.0000     -15.028294      -408.9407
   7   2.0000     -14.888330      -405.1321
   8   2.0000     -10.818102      -294.3755
   9   2.0000     -10.812381      -294.2199
  10   2.0000     -10.810068      -294.1569
  11   2.0000     -10.799643      -293.8732
  12   2.0000     -10.795937      -293.7724
  13   2.0000     -10.785664      -293.4928
  14   2.0000     -10.781491      -293.3793
  15   2.0000     -10.778138      -293.2880
  16   2.0000     -10.760563      -292.8098
  17   2.0000     -10.736843      -292.1643
  18   2.0000     -10.723467      -291.8004
  19   2.0000      -8.592672      -233.8185
  20   2.0000      -8.522090      -231.8979
  21   2.0000      -6.379489      -173.5947
  22   2.0000      -6.377094      -173.5296
  23   2.0000      -6.376057      -173.5013
  24   2.0000      -6.304696      -171.5595
  25   2.0000      -6.302478      -171.4991
  26   2.0000      -6.301465      -171.4716
  27   2.0000      -1.234957       -33.6049
  28   2.0000      -1.200587       -32.6696
  29   2.0000      -1.139676       -31.0122
  30   2.0000      -1.068105       -29.0646
  31   2.0000      -1.023946       -27.8630
  32   2.0000      -0.973514       -26.4907
  33   2.0000      -0.884464       -24.0675
  34   2.0000      -0.883705       -24.0468
  35   2.0000      -0.875276       -23.8175
  36   2.0000      -0.847149       -23.0521
  37   2.0000      -0.797000       -21.6875
  38   2.0000      -0.774974       -21.0881
  39   2.0000      -0.740618       -20.1532
  40   2.0000      -0.726447       -19.7676
  41   2.0000      -0.645756       -17.5719
  42   2.0000      -0.633445       -17.2369
  43   2.0000      -0.605740       -16.4830
  44   2.0000      -0.594410       -16.1747
  45   2.0000      -0.559483       -15.2243
  46   2.0000      -0.549975       -14.9656
  47   2.0000      -0.525005       -14.2861
  48   2.0000      -0.522362       -14.2142
  49   2.0000      -0.518419       -14.1069
  50   2.0000      -0.513699       -13.9785
  51   2.0000      -0.496669       -13.5151
  52   2.0000      -0.478988       -13.0339
  53   2.0000      -0.469054       -12.7636
  54   2.0000      -0.458260       -12.4699
  55   2.0000      -0.451158       -12.2766
  56   2.0000      -0.429584       -11.6896
  57   2.0000      -0.426458       -11.6045
  58   2.0000      -0.416989       -11.3469
  59   2.0000      -0.402661       -10.9570
  60   2.0000      -0.401177       -10.9166
  61   2.0000      -0.391250       -10.6465
  62   2.0000      -0.390314       -10.6210
  63   2.0000      -0.376947       -10.2572
  64   2.0000      -0.363580        -9.8935
  65   2.0000      -0.351686        -9.5699
  66   2.0000      -0.347514        -9.4563
  67   2.0000      -0.337792        -9.1918
  68   2.0000      -0.302533        -8.2323
  69   2.0000      -0.296224        -8.0607
  70   2.0000      -0.269028        -7.3206
  71   2.0000      -0.262636        -7.1467
  72   2.0000      -0.253623        -6.9014
  73   2.0000      -0.247003        -6.7213
  74   2.0000      -0.230569        -6.2741
  75   2.0000      -0.202804        -5.5186
  76   2.0000      -0.198843        -5.4108
  77   2.0000      -0.185915        -5.0590
  78   2.0000      -0.149597        -4.0707
  79   0.0000       0.067962         1.8493
  80   0.0000       0.078719         2.1421
  81   0.0000       0.081728         2.2239
  82   0.0000       0.086378         2.3505
  83   0.0000       0.094337         2.5671

MULLIKEN ATOMIC CHARGES
-----------------------
   0 C :    0.705840
   1 S :    2.064866
   2 O :   -0.999735
   3 O :   -1.008855
   4 N :   -1.078993
   5 H :    0.114568
   6 C :   -1.291468
   7 C :    0.848688
   8 C :    0.356765
   9 O :   -0.668763
  10 C :   -1.348059
  11 C :    1.416674
  12 S :   -0.592933
  13 H :    0.269558
  14 H :    0.135065
  15 C :   -0.508255
  16 N :    0.041245
  17 C :   -0.589363
  18 C :   -0.378342
  19 O :   -0.736413
  20 C :   -0.382148
  21 C :   -0.587569
  22 H :    0.264644
  23 H :    0.393345
  24 H :    0.494246
  25 H :    0.222506
  26 H :    0.239816
  27 H :    0.364673
  28 H :    0.246589
  29 H :    0.358338
  30 H :    0.404202
  31 H :    0.229269
Sum of atomic charges:   -1.0000000

LOEWDIN ATOMIC CHARGES
----------------------
   0 C :   -0.479215
   1 S :   -0.175983
   2 O :   -0.027878
   3 O :   -0.024028
   4 N :    0.270187
   5 H :   -0.596566
   6 C :    0.169537
   7 C :   -0.246270
   8 C :   -0.807815
   9 O :    0.535494
  10 C :    0.141977
  11 C :   -0.494818
  12 S :    1.318300
  13 H :   -0.205916
  14 H :   -0.178596
  15 C :    0.055158
  16 N :    0.257589
  17 C :    0.142023
  18 C :    0.039168
  19 O :    0.579200
  20 C :    0.027509
  21 C :    0.140065
  22 H :   -0.139271
  23 H :   -0.155006
  24 H :   -0.154518
  25 H :   -0.122074
  26 H :   -0.144902
  27 H :   -0.153140
  28 H :   -0.147175
  29 H :   -0.156124
  30 H :   -0.141019
  31 H :   -0.125892

  Mayer bond orders larger than 0.100000
B(  0-C ,  1-S ) :   0.8195 B(  0-C ,  4-N ) :   0.1046 B(  0-C ,  6-C ) :   1.2489
B(  0-C ,  7-C ) :  -0.1013 B(  0-C ,  9-O ) :   0.7427 B(  1-S ,  2-O ) :   1.2501
B(  1-S ,  3-O ) :   1.2237 B(  1-S ,  4-N ) :   1.2616 B(  2-O ,  4-N ) :   0.1042
B(  4-N ,  5-H ) :   0.9359 B(  6-C ,  7-C ) :   0.2849 B(  6-C ,  8-C ) :   0.4333
B(  6-C , 13-H ) :   1.2026 B(  7-C ,  8-C ) :   1.1890 B(  7-C , 10-C ) :   1.0017
B(  7-C , 12-S ) :   0.2153 B(  7-C , 14-H ) :  -0.1409 B(  8-C ,  9-O ) :   0.9001
B(  8-C , 10-C ) :  -0.2526 B(  8-C , 11-C ) :  -0.2469 B(  8-C , 12-S ) :   0.8025
B(  8-C , 14-H ) :   0.1448 B( 10-C , 11-C ) :   0.1607 B( 10-C , 12-S ) :   0.2010
B( 10-C , 14-H ) :   1.3278 B( 11-C , 12-S ) :   0.7063 B( 11-C , 14-H ) :  -0.1728
B( 11-C , 15-C ) :   0.5626 B( 11-C , 23-H ) :  -0.1138 B( 12-S , 15-C ) :   0.1534
B( 12-S , 16-N ) :  -0.1530 B( 15-C , 16-N ) :   1.1641 B( 15-C , 22-H ) :   1.0745
B( 15-C , 23-H ) :   0.8457 B( 16-N , 17-C ) :   0.9480 B( 16-N , 21-C ) :   0.7977
B( 17-C , 18-C ) :   1.0004 B( 17-C , 24-H ) :   0.7062 B( 17-C , 25-H ) :   0.9985
B( 18-C , 19-O ) :   0.8390 B( 18-C , 26-H ) :   1.0463 B( 18-C , 27-H ) :   0.9090
B( 19-O , 20-C ) :   0.8707 B( 20-C , 21-C ) :   1.0282 B( 20-C , 28-H ) :   1.0198
B( 20-C , 29-H ) :   0.9265 B( 21-C , 30-H ) :   0.8087 B( 21-C , 31-H ) :   0.9803

MP2 TOTAL ENERGY:    -1632.058847082 Eh
Dispersion correction           -0.024223829
FINAL SINGLE POINT ENERGY     -1632.083070911066

DIPOLE MOMENT
-------------
                                X             Y             Z
Electronic contribution:     -5.18771      -2.26795      26.49044
Nuclear contribution   :      6.73194       1.62681     -34.50386
                        -----------------------------------------
Total Dipole Moment    :      1.54422      -0.64114      -8.01342
                        -----------------------------------------
Magnitude (a.u.)       :      8.18600
Magnitude (Debye)      :     20.80715

Rotational constants in cm-1:     0.036302     0.003730     0.003672
Rotational constants in MHz :  1088.292487   111.824290   110.094238

                             ****ORCA TERMINATED NORMALLY****
TOTAL RUN TIME: 0 days 0 hours 7 minutes 47 seconds 770 msec
