                         Program Version 5.0.3 -  RELEASE  -
|  1> !PAL8
|  2> !RI-DSD-PBEP86 D3BJ aug-cc-pVTZ aug-cc-pVTZ/C TightSCF
|  3> %maxcore 5000
|  4>
|  5> * xyz -1 1
|  6> C -1.3049382465  0.7318904882 -0.887419781
|  7> C -2.502500556  0.7929342653 -1.5995542369
|  8> H -3.4388617099  0.7648130954 -1.0490468882
|  9> C -2.4934685214  0.8979605687 -2.9879050805
| 10> H -3.4186229243  0.9488047635 -3.5541208863
| 11> C -1.2696033403  0.9432421111 -3.6505966033
| 12> Cl -1.2485765751  1.0805409748 -5.404873425
| 13> C -0.0654805364  0.8916013699 -2.9592475102
| 14> H  0.8742597376  0.9407297593 -3.5012538439
| 15> C -0.0917335568  0.7841900532 -1.5677342592
| 16> H  0.8293327067  0.7605005842 -0.9919435733
| 17> S -1.3494013557  0.4945082793  0.9216658877
| 18> O  0.0004356434  0.9590332548  1.3322207561
| 19> O -2.4958031186  1.3310340337  1.3216411849
| 20> N -1.6439601272 -1.0179585726  1.1908842459
| 21> H -0.7426485196 -1.4985970288  1.1560760132
| 22> *
| 23>
| 24>
| 25>
| 26>                          ****END OF INPUT****

CARTESIAN COORDINATES (ANGSTROEM)
---------------------------------
  C     -1.304938    0.731890   -0.887420
  C     -2.502501    0.792934   -1.599554
  H     -3.438862    0.764813   -1.049047
  C     -2.493469    0.897961   -2.987905
  H     -3.418623    0.948805   -3.554121
  C     -1.269603    0.943242   -3.650597
  Cl    -1.248577    1.080541   -5.404873
  C     -0.065481    0.891601   -2.959248
  H      0.874260    0.940730   -3.501254
  C     -0.091734    0.784190   -1.567734
  H      0.829333    0.760501   -0.991944
  S     -1.349401    0.494508    0.921666
  O      0.000436    0.959033    1.332221
  O     -2.495803    1.331034    1.321641
  N     -1.643960   -1.017959    1.190884
  H     -0.742649   -1.498597    1.156076

 Total Charge           Charge          ....   -1
 Multiplicity           Mult            ....    1
 Number of Electrons    NEL             ....   98
 Basis Dimension        Dim             ....  629

ORBITAL ENERGIES
----------------

  NO   OCC          E(Eh)            E(eV)
   0   2.0000    -103.518140     -2816.8718
   1   2.0000     -90.844926     -2472.0161
   2   2.0000     -19.827240      -539.5266
   3   2.0000     -19.825202      -539.4712
   4   2.0000     -14.885005      -405.0416
   5   2.0000     -10.799221      -293.8617
   6   2.0000     -10.744364      -292.3690
   7   2.0000     -10.743841      -292.3548
   8   2.0000     -10.733752      -292.0803
   9   2.0000     -10.733343      -292.0691
  10   2.0000     -10.732045      -292.0338
  11   2.0000     -10.066065      -273.9116
  12   2.0000      -8.586746      -233.6572
  13   2.0000      -7.638976      -207.8671
  14   2.0000      -7.634856      -207.7550
  15   2.0000      -7.634825      -207.7542
  16   2.0000      -6.373072      -173.4201
  17   2.0000      -6.371236      -173.3701
  18   2.0000      -6.370294      -173.3445
  19   2.0000      -1.135969       -30.9113
  20   2.0000      -1.020734       -27.7756
  21   2.0000      -0.978856       -26.6360
  22   2.0000      -0.913772       -24.8650
  23   2.0000      -0.877594       -23.8806
  24   2.0000      -0.823484       -22.4081
  25   2.0000      -0.796726       -21.6800
  26   2.0000      -0.655937       -17.8489
  27   2.0000      -0.643831       -17.5195
  28   2.0000      -0.577157       -15.7052
  29   2.0000      -0.514098       -13.9893
  30   2.0000      -0.478466       -13.0197
  31   2.0000      -0.467288       -12.7155
  32   2.0000      -0.442596       -12.0436
  33   2.0000      -0.432173       -11.7600
  34   2.0000      -0.424700       -11.5567
  35   2.0000      -0.394688       -10.7400
  36   2.0000      -0.387405       -10.5418
  37   2.0000      -0.367955       -10.0126
  38   2.0000      -0.347276        -9.4499
  39   2.0000      -0.323563        -8.8046
  40   2.0000      -0.312767        -8.5108
  41   2.0000      -0.292957        -7.9718
  42   2.0000      -0.260040        -7.0760
  43   2.0000      -0.245590        -6.6828
  44   2.0000      -0.228788        -6.2256
  45   2.0000      -0.214357        -5.8330
  46   2.0000      -0.204580        -5.5669
  47   2.0000      -0.194469        -5.2918
  48   2.0000      -0.154794        -4.2122
  49   0.0000       0.097834         2.6622
  50   0.0000       0.101449         2.7606
  51   0.0000       0.121826         3.3151
  52   0.0000       0.130266         3.5447
  53   0.0000       0.131961         3.5908

MULLIKEN ATOMIC CHARGES
-----------------------
   0 C :    0.920025
   1 C :   -0.662283
   2 H :    0.558458
   3 C :   -0.825482
   4 H :    0.498032
   5 C :    0.643879
   6 Cl:   -0.532671
   7 C :   -0.830267
   8 H :    0.505224
   9 C :   -0.716063
  10 H :    0.491666
  11 S :    1.930211
  12 O :   -1.007791
  13 O :   -1.008111
  14 N :   -1.079002
  15 H :    0.114174
Sum of atomic charges:   -1.0000000

LOEWDIN ATOMIC CHARGES
----------------------
   0 C :   -0.246532
   1 C :    0.138753
   2 H :   -0.195336
   3 C :    0.088613
   4 H :   -0.208714
   5 C :   -0.782155
   6 Cl:    0.902655
   7 C :    0.085419
   8 H :   -0.209555
   9 C :    0.136966
  10 H :   -0.212799
  11 S :   -0.140601
  12 O :   -0.018113
  13 O :   -0.017097
  14 N :    0.274667
  15 H :   -0.596171

  Mayer bond orders larger than 0.100000
B(  0-C ,  1-C ) :   0.9987 B(  0-C ,  3-C ) :  -0.1696 B(  0-C ,  7-C ) :  -0.1636
B(  0-C ,  9-C ) :   0.8089 B(  0-C , 11-S ) :   0.8500 B(  0-C , 14-N ) :   0.2142
B(  1-C ,  2-H ) :   0.5158 B(  1-C ,  3-C ) :   1.2140 B(  1-C ,  9-C ) :   0.1498
B(  1-C , 14-N ) :  -0.1209 B(  3-C ,  4-H ) :   0.7420 B(  3-C ,  5-C ) :   1.3040
B(  3-C ,  6-Cl) :   0.1090 B(  5-C ,  6-Cl) :   0.4604 B(  5-C ,  7-C ) :   1.3181
B(  7-C ,  8-H ) :   0.7107 B(  7-C ,  9-C ) :   1.2207 B(  9-C , 10-H ) :   0.6511
B( 11-S , 12-O ) :   1.1859 B( 11-S , 13-O ) :   1.2323 B( 11-S , 14-N ) :   1.2995
B( 14-N , 15-H ) :   0.9403

MP2 TOTAL ENERGY:    -1294.095169361 Eh
Dispersion correction           -0.013486387
FINAL SINGLE POINT ENERGY     -1294.108655747189

DIPOLE MOMENT
-------------
                                X             Y             Z
Electronic contribution:     -0.01796       2.31581      -8.52602
Nuclear contribution   :      0.52335      -2.08541       4.66243
                        -----------------------------------------
Total Dipole Moment    :      0.50539       0.23040      -3.86359
                        -----------------------------------------
Magnitude (a.u.)       :      3.90331
Magnitude (Debye)      :      9.92143

Rotational constants in cm-1:     0.088062     0.013215     0.012347
Rotational constants in MHz :  2640.038082   396.189747   370.158664

                             ****ORCA TERMINATED NORMALLY****
TOTAL RUN TIME: 0 days 0 hours 1 minutes 59 seconds 705 msec
