                         Program Version 5.0.3 -  RELEASE  -
|  1> !PAL8
|  2> !RI-DSD-PBEP86 D3BJ aug-cc-pVTZ aug-cc-pVTZ/C TightSCF
|  3> %maxcore 5000
|  4>
|  5>
|  6> * xyz -1 1
|  7> C -1.6431720406  0.47990212 -1.4997719026
|  8> S -2.2963658179  0.2718308291  0.1982751557
|  9> O -2.8458192785  1.6012224753  0.4950586355
| 10> O -3.2801766212 -0.8150370527 -0.0210379668
| 11> N -1.075429549 -0.0690154618  1.100922232
| 12> H -0.9285187025 -1.0772034452  1.0221271112
| 13> S -2.6624919557  0.2882886544 -2.8855718318
| 14> C -1.3849909113  0.669251552 -3.9651544828
| 15> C -0.2363498175  0.9323119864 -3.2690554714
| 16> C -0.3719291236  0.8254475408 -1.8515956289
| 17> S  1.2855683906  1.2507693525 -4.090917746
| 18> C  2.1912264408 -0.2821625226 -3.9023606785
| 19> O  2.030782918  2.2705372304 -3.3526231818
| 20> O  1.007563047  1.4113550006 -5.5218519916
| 21> C  3.0094225818 -0.4519996283 -2.7924626016
| 22> C  3.6897449215 -1.6592905581 -2.6373681388
| 23> C  3.550809978 -2.681605117 -3.576256339
| 24> C  2.7285162185 -2.4825348474 -4.6916488321
| 25> C  2.0433330058 -1.2847097691 -4.8587115057
| 26> H -1.5072629284  0.6769585277 -5.0403494467
| 27> H  0.4112179778  0.9954086034 -1.1208151062
| 28> H  3.1171441537  0.3554335776 -2.0742264865
| 29> H  4.3366735464 -1.8044828912 -1.7754441548
| 30> H  1.4053605347 -1.1108987009 -5.7204520468
| 31> C  4.264408549 -4.0020669666 -3.3937133357
| 32> N  4.962139154 -4.4294905525 -4.5998051998
| 33> H  2.6427954521 -3.2746183424 -5.4308323045
| 34> H  3.529023538 -4.7788619805 -3.1473139887
| 35> H  4.9588894993 -3.9308297867 -2.5338281284
| 36> C  6.058962435 -3.5282681313 -4.9384689904
| 37> C  5.4708099909 -5.7877149158 -4.4651494834
| 38> C  6.1595801489 -6.2094695876 -5.7550126465
| 39> C  6.7357795728 -4.0009066004 -6.215380117
| 40> O  7.2149071701 -5.3272822605 -6.0824370621
| 41> H  6.8054219054 -3.4936204723 -4.1198065057
| 42> H  5.6625745739 -2.5175275367 -5.0810021556
| 43> H  4.6329798758 -6.4628378542 -4.2551283526
| 44> H  6.1927846657 -5.8641928359 -3.6275633527
| 45> H  5.4226079644 -6.2270730484 -6.5735969103
| 46> H  6.6034542866 -7.2029967003 -5.6518249913
| 47> H  7.6033564035 -3.3789407344 -6.4483637687
| 48> H  6.0199518463 -3.9479931493 -7.0506703009
| 49> *
| 50>
| 51>                          ****END OF INPUT****

CARTESIAN COORDINATES (ANGSTROEM)
---------------------------------
  C     -1.643172    0.479902   -1.499772
  S     -2.296366    0.271831    0.198275
  O     -2.845819    1.601222    0.495059
  O     -3.280177   -0.815037   -0.021038
  N     -1.075430   -0.069015    1.100922
  H     -0.928519   -1.077203    1.022127
  S     -2.662492    0.288289   -2.885572
  C     -1.384991    0.669252   -3.965154
  C     -0.236350    0.932312   -3.269055
  C     -0.371929    0.825448   -1.851596
  S      1.285568    1.250769   -4.090918
  C      2.191226   -0.282163   -3.902361
  O      2.030783    2.270537   -3.352623
  O      1.007563    1.411355   -5.521852
  C      3.009423   -0.452000   -2.792463
  C      3.689745   -1.659291   -2.637368
  C      3.550810   -2.681605   -3.576256
  C      2.728516   -2.482535   -4.691649
  C      2.043333   -1.284710   -4.858712
  H     -1.507263    0.676959   -5.040349
  H      0.411218    0.995409   -1.120815
  H      3.117144    0.355434   -2.074226
  H      4.336674   -1.804483   -1.775444
  H      1.405361   -1.110899   -5.720452
  C      4.264409   -4.002067   -3.393713
  N      4.962139   -4.429491   -4.599805
  H      2.642795   -3.274618   -5.430832
  H      3.529024   -4.778862   -3.147314
  H      4.958889   -3.930830   -2.533828
  C      6.058962   -3.528268   -4.938469
  C      5.470810   -5.787715   -4.465149
  C      6.159580   -6.209470   -5.755013
  C      6.735780   -4.000907   -6.215380
  O      7.214907   -5.327282   -6.082437
  H      6.805422   -3.493620   -4.119807
  H      5.662575   -2.517528   -5.081002
  H      4.632980   -6.462838   -4.255128
  H      6.192785   -5.864193   -3.627563
  H      5.422608   -6.227073   -6.573597
  H      6.603454   -7.202997   -5.651825
  H      7.603356   -3.378941   -6.448364
  H      6.019952   -3.947993   -7.050670

 Total Charge           Charge          ....   -1
 Multiplicity           Mult            ....    1
 Number of Electrons    NEL             ....  210
 Basis Dimension        Dim             .... 1553

ORBITAL ENERGIES
----------------

  NO   OCC          E(Eh)            E(eV)
   0   2.0000     -90.934003     -2474.4400
   1   2.0000     -90.864212     -2472.5409
   2   2.0000     -90.744923     -2469.2949
   3   2.0000     -19.979606      -543.6727
   4   2.0000     -19.925148      -542.1908
   5   2.0000     -19.923372      -542.1425
   6   2.0000     -19.841665      -539.9192
   7   2.0000     -19.839264      -539.8538
   8   2.0000     -15.045603      -409.4117
   9   2.0000     -14.901809      -405.4988
  10   2.0000     -10.831828      -294.7490
  11   2.0000     -10.828950      -294.6707
  12   2.0000     -10.812659      -294.2274
  13   2.0000     -10.810088      -294.1575
  14   2.0000     -10.804086      -293.9941
  15   2.0000     -10.798166      -293.8330
  16   2.0000     -10.794948      -293.7455
  17   2.0000     -10.788329      -293.5654
  18   2.0000     -10.787768      -293.5501
  19   2.0000     -10.787677      -293.5476
  20   2.0000     -10.783051      -293.4217
  21   2.0000     -10.780845      -293.3617
  22   2.0000     -10.776410      -293.2410
  23   2.0000     -10.767849      -293.0081
  24   2.0000     -10.745930      -292.4116
  25   2.0000      -8.680378      -236.2051
  26   2.0000      -8.605237      -234.1604
  27   2.0000      -8.520260      -231.8481
  28   2.0000      -6.465551      -175.9366
  29   2.0000      -6.464906      -175.9190
  30   2.0000      -6.463869      -175.8908
  31   2.0000      -6.392109      -173.9381
  32   2.0000      -6.389569      -173.8690
  33   2.0000      -6.388541      -173.8410
  34   2.0000      -6.302681      -171.5047
  35   2.0000      -6.300060      -171.4334
  36   2.0000      -6.299990      -171.4314
  37   2.0000      -1.232497       -33.5379
  38   2.0000      -1.215858       -33.0852
  39   2.0000      -1.153144       -31.3787
  40   2.0000      -1.124879       -30.6095
  41   2.0000      -1.085088       -29.5267
  42   2.0000      -1.035374       -28.1740
  43   2.0000      -1.000944       -27.2371
  44   2.0000      -0.984798       -26.7977
  45   2.0000      -0.907666       -24.6988
  46   2.0000      -0.898994       -24.4629
  47   2.0000      -0.897909       -24.4333
  48   2.0000      -0.869035       -23.6477
  49   2.0000      -0.846772       -23.0418
  50   2.0000      -0.823946       -22.4207
  51   2.0000      -0.807024       -21.9603
  52   2.0000      -0.761096       -20.7105
  53   2.0000      -0.756300       -20.5800
  54   2.0000      -0.717090       -19.5130
  55   2.0000      -0.703140       -19.1334
  56   2.0000      -0.663216       -18.0470
  57   2.0000      -0.653413       -17.7803
  58   2.0000      -0.639553       -17.4031
  59   2.0000      -0.603895       -16.4328
  60   2.0000      -0.580274       -15.7900
  61   2.0000      -0.568554       -15.4711
  62   2.0000      -0.558805       -15.2059
  63   2.0000      -0.544485       -14.8162
  64   2.0000      -0.541616       -14.7381
  65   2.0000      -0.537401       -14.6234
  66   2.0000      -0.533447       -14.5158
  67   2.0000      -0.527507       -14.3542
  68   2.0000      -0.512896       -13.9566
  69   2.0000      -0.504357       -13.7243
  70   2.0000      -0.483552       -13.1581
  71   2.0000      -0.479583       -13.0501
  72   2.0000      -0.476005       -12.9528
  73   2.0000      -0.471097       -12.8192
  74   2.0000      -0.470193       -12.7946
  75   2.0000      -0.452485       -12.3127
  76   2.0000      -0.440388       -11.9836
  77   2.0000      -0.436073       -11.8661
  78   2.0000      -0.421132       -11.4596
  79   2.0000      -0.417056       -11.3487
  80   2.0000      -0.412739       -11.2312
  81   2.0000      -0.408173       -11.1070
  82   2.0000      -0.405998       -11.0478
  83   2.0000      -0.402351       -10.9485
  84   2.0000      -0.388851       -10.5812
  85   2.0000      -0.387276       -10.5383
  86   2.0000      -0.379781       -10.3344
  87   2.0000      -0.362524        -9.8648
  88   2.0000      -0.358410        -9.7528
  89   2.0000      -0.350070        -9.5259
  90   2.0000      -0.340461        -9.2644
  91   2.0000      -0.324603        -8.8329
  92   2.0000      -0.317672        -8.6443
  93   2.0000      -0.308273        -8.3885
  94   2.0000      -0.302238        -8.2243
  95   2.0000      -0.277795        -7.5592
  96   2.0000      -0.273154        -7.4329
  97   2.0000      -0.268081        -7.2949
  98   2.0000      -0.260826        -7.0974
  99   2.0000      -0.258157        -7.0248
 100   2.0000      -0.239530        -6.5179
 101   2.0000      -0.225483        -6.1357
 102   2.0000      -0.210667        -5.7325
 103   2.0000      -0.205860        -5.6017
 104   2.0000      -0.180409        -4.9092
 105   0.0000       0.060490         1.6460
 106   0.0000       0.070476         1.9178
 107   0.0000       0.071073         1.9340
 108   0.0000       0.077565         2.1107
 109   0.0000       0.087167         2.3719

MULLIKEN ATOMIC CHARGES
-----------------------
   0 C :    0.685819
   1 S :    2.062191
   2 O :   -0.996907
   3 O :   -0.983011
   4 N :   -1.070748
   5 H :    0.104359
   6 S :   -0.362392
   7 C :   -0.686389
   8 C :    0.242138
   9 C :   -0.920092
  10 S :    2.075184
  11 C :    0.809826
  12 O :   -1.136724
  13 O :   -1.099847
  14 C :   -0.606643
  15 C :   -1.051985
  16 C :    2.135876
  17 C :   -0.922484
  18 C :   -0.800267
  19 H :    0.496520
  20 H :    0.357687
  21 H :    0.461793
  22 H :    0.014635
  23 H :    0.414703
  24 C :   -0.698759
  25 N :    0.151721
  26 H :    0.016220
  27 H :    0.379429
  28 H :    0.219037
  29 C :   -0.626880
  30 C :   -0.730856
  31 C :   -0.358319
  32 C :   -0.378010
  33 O :   -0.725222
  34 H :    0.252617
  35 H :    0.458951
  36 H :    0.369627
  37 H :    0.225741
  38 H :    0.269910
  39 H :    0.327620
  40 H :    0.373433
  41 H :    0.250498
Sum of atomic charges:   -1.0000000

LOEWDIN ATOMIC CHARGES
----------------------
   0 C :   -0.629968
   1 S :   -0.218522
   2 O :   -0.027169
   3 O :   -0.044332
   4 N :    0.276621
   5 H :   -0.586793
   6 S :    1.252189
   7 C :   -0.245847
   8 C :   -0.420025
   9 C :    0.004698
  10 S :    0.237430
  11 C :   -0.242131
  12 O :    0.061456
  13 O :    0.057643
  14 C :    0.177694
  15 C :    0.233675
  16 C :   -0.111192
  17 C :    0.228739
  18 C :    0.179074
  19 H :   -0.263782
  20 H :   -0.197173
  21 H :   -0.188213
  22 H :   -0.170050
  23 H :   -0.189607
  24 C :    0.147423
  25 N :    0.276673
  26 H :   -0.166581
  27 H :   -0.133934
  28 H :   -0.135236
  29 C :    0.155992
  30 C :    0.149076
  31 C :    0.031987
  32 C :    0.040200
  33 O :    0.581830
  34 H :   -0.120678
  35 H :   -0.141901
  36 H :   -0.138005
  37 H :   -0.124161
  38 H :   -0.146354
  39 H :   -0.154213
  40 H :   -0.152033
  41 H :   -0.144497

  Mayer bond orders larger than 0.100000
B(  0-C ,  1-S ) :   0.8051 B(  0-C ,  6-S ) :   0.8008 B(  0-C ,  8-C ) :  -0.1070
B(  0-C ,  9-C ) :   1.2851 B(  1-S ,  2-O ) :   1.2598 B(  1-S ,  3-O ) :   1.2159
B(  1-S ,  4-N ) :   1.2273 B(  1-S ,  5-H ) :   0.1212 B(  2-O ,  4-N ) :   0.1053
B(  4-N ,  5-H ) :   0.9404 B(  6-S ,  7-C ) :   1.1254 B(  6-S ,  9-C ) :   0.2168
B(  7-C ,  8-C ) :   1.0373 B(  7-C , 11-C ) :   0.1297 B(  7-C , 19-H ) :   0.6795
B(  8-C ,  9-C ) :   0.8187 B(  8-C , 10-S ) :   1.1578 B(  8-C , 11-C ) :   0.3592
B(  8-C , 12-O ) :   0.1980 B(  8-C , 13-O ) :   0.1120 B(  9-C , 11-C ) :   0.1639
B(  9-C , 20-H ) :   0.9165 B( 10-S , 11-C ) :   1.0950 B( 10-S , 12-O ) :   0.6894
B( 10-S , 13-O ) :   0.7611 B( 10-S , 18-C ) :  -0.1638 B( 11-C , 12-O ) :   0.2046
B( 11-C , 13-O ) :   0.2833 B( 11-C , 14-C ) :   0.6740 B( 11-C , 15-C ) :  -0.1867
B( 11-C , 16-C ) :  -0.1213 B( 11-C , 17-C ) :  -0.1792 B( 11-C , 18-C ) :   0.6756
B( 11-C , 24-C ) :   0.1219 B( 12-O , 14-C ) :   0.1738 B( 12-O , 15-C ) :  -0.1143
B( 12-O , 18-C ) :  -0.1052 B( 13-O , 17-C ) :  -0.1122 B( 14-C , 15-C ) :   1.2847
B( 14-C , 16-C ) :   0.2754 B( 14-C , 21-H ) :   0.6814 B( 14-C , 22-H ) :  -0.1429
B( 14-C , 24-C ) :  -0.1106 B( 15-C , 17-C ) :  -0.4311 B( 15-C , 18-C ) :   0.1896
B( 15-C , 22-H ) :   1.7107 B( 15-C , 24-C ) :   0.2186 B( 15-C , 25-N ) :  -0.1139
B( 15-C , 26-H ) :   0.1914 B( 16-C , 17-C ) :   0.5750 B( 16-C , 18-C ) :   0.2158
B( 16-C , 22-H ) :  -0.4002 B( 16-C , 23-H ) :   0.1153 B( 16-C , 25-N ) :  -0.2432
B( 16-C , 26-H ) :  -0.3931 B( 16-C , 27-H ) :  -0.1486 B( 17-C , 18-C ) :   1.3755
B( 17-C , 22-H ) :   0.1321 B( 17-C , 24-C ) :   0.3561 B( 17-C , 26-H ) :   1.7013
B( 18-C , 22-H ) :  -0.1059 B( 18-C , 23-H ) :   0.7536 B( 18-C , 26-H ) :  -0.1569
B( 21-H , 38-H ) :  -0.1069 B( 21-H , 39-H ) :   0.1914 B( 22-H , 26-H ) :   0.1355
B( 24-C , 25-N ) :   1.2711 B( 24-C , 27-H ) :   0.8985 B( 24-C , 28-H ) :   1.1349
B( 25-N , 28-H ) :  -0.1097 B( 25-N , 29-C ) :   0.9136 B( 25-N , 30-C ) :   0.9041
B( 25-N , 31-C ) :  -0.1217 B( 29-C , 30-C ) :   0.1000 B( 29-C , 32-C ) :   1.0321
B( 29-C , 34-H ) :   0.9549 B( 29-C , 35-H ) :   0.7667 B( 30-C , 31-C ) :   1.0756
B( 30-C , 36-H ) :   0.8538 B( 30-C , 37-H ) :   0.9839 B( 31-C , 33-O ) :   0.8908
B( 31-C , 38-H ) :   0.9734 B( 31-C , 39-H ) :   0.9704 B( 32-C , 33-O ) :   0.8359
B( 32-C , 40-H ) :   0.8994 B( 32-C , 41-H ) :   1.0346

MP2 TOTAL ENERGY:    -2259.707991406 Eh
Dispersion correction           -0.035914601
FINAL SINGLE POINT ENERGY     -2259.743906007660

DIPOLE MOMENT
-------------
                                X             Y             Z
Electronic contribution:    -34.22860      28.42524       9.49417
Nuclear contribution   :     40.01021     -32.93183     -14.31332
                        -----------------------------------------
Total Dipole Moment    :      5.78161      -4.50659      -4.81914
                        -----------------------------------------
Magnitude (a.u.)       :      8.77271
Magnitude (Debye)      :     22.29846

Rotational constants in cm-1:     0.011846     0.002275     0.002092
Rotational constants in MHz :   355.123948    68.190586    62.723778

                             ****ORCA TERMINATED NORMALLY****
TOTAL RUN TIME: 0 days 0 hours 17 minutes 3 seconds 922 msec
