                         Program Version 5.0.3 -  RELEASE  -
|  1> !PAL8
|  2> !RI-DSD-PBEP86 D3BJ aug-cc-pVTZ aug-cc-pVTZ/C TightSCF
|  3> %maxcore 5000
|  4>
|  5>
|  6> * xyz -1 1
|  7> C -1.5769827407  0.9373470044 -0.6160481156
|  8> S -1.7427577119  0.5371753301  1.165922519
|  9> O -3.2040889683  0.5336761455  1.3186323951
| 10> O -1.0351651793 -0.7579413336  1.2268831047
| 11> N -1.0880498892  1.7093074878  1.949735395
| 12> H -0.0898340448  1.5009856018  2.0135257403
| 13> S -2.7513474694  1.9085911979 -1.4009214427
| 14> C -1.8170152583  1.96451316 -2.8529900504
| 15> C -0.6479246829  1.2369450361 -2.6927400633
| 16> C -0.5004748847  0.6434291866 -1.4236029321
| 17> C -2.2608088943  2.6901296759 -4.0448092586
| 18> S  0.5118430523  1.0739624736 -4.0200027892
| 19> O  0.1353039199 -0.0448406429 -4.8882556306
| 20> O  1.8731849189  1.1431916102 -3.4904708873
| 21> H  0.3396582787  0.038896927 -1.1022185403
| 22> C -1.337676892  2.6536846477 -5.260616986
| 23> C  0.1484124413  2.5861023234 -4.918852244
| 24> O -3.3225718962  3.2863676671 -4.097700209
| 25> H -1.5545940498  3.5425950141 -5.8592928106
| 26> H -1.6100140573  1.7733138801 -5.8565446109
| 27> H  0.477393411  3.4145797498 -4.2854254259
| 28> H  0.776118597  2.5425888574 -5.8142881579
| 29> *
| 30>
| 31>                          ****END OF INPUT****

CARTESIAN COORDINATES (ANGSTROEM)
---------------------------------
  C     -1.576983    0.937347   -0.616048
  S     -1.742758    0.537175    1.165923
  O     -3.204089    0.533676    1.318632
  O     -1.035165   -0.757941    1.226883
  N     -1.088050    1.709307    1.949735
  H     -0.089834    1.500986    2.013526
  S     -2.751347    1.908591   -1.400921
  C     -1.817015    1.964513   -2.852990
  C     -0.647925    1.236945   -2.692740
  C     -0.500475    0.643429   -1.423603
  C     -2.260809    2.690130   -4.044809
  S      0.511843    1.073962   -4.020003
  O      0.135304   -0.044841   -4.888256
  O      1.873185    1.143192   -3.490471
  H      0.339658    0.038897   -1.102219
  C     -1.337677    2.653685   -5.260617
  C      0.148412    2.586102   -4.918852
  O     -3.322572    3.286368   -4.097700
  H     -1.554594    3.542595   -5.859293
  H     -1.610014    1.773314   -5.856545
  H      0.477393    3.414580   -4.285425
  H      0.776119    2.542589   -5.814288

 Total Charge           Charge          ....   -1
 Multiplicity           Mult            ....    1
 Number of Electrons    NEL             ....  144
 Basis Dimension        Dim             ....  886

ORBITAL ENERGIES
----------------

  NO   OCC          E(Eh)            E(eV)
   0   2.0000     -90.943054     -2474.6863
   1   2.0000     -90.875066     -2472.8362
   2   2.0000     -90.757755     -2469.6441
   3   2.0000     -19.939268      -542.5751
   4   2.0000     -19.935843      -542.4819
   5   2.0000     -19.934184      -542.4367
   6   2.0000     -19.852870      -540.2241
   7   2.0000     -19.851233      -540.1795
   8   2.0000     -14.911733      -405.7689
   9   2.0000     -10.867754      -295.7266
  10   2.0000     -10.811619      -294.1991
  11   2.0000     -10.802535      -293.9519
  12   2.0000     -10.797421      -293.8128
  13   2.0000     -10.790474      -293.6237
  14   2.0000     -10.790351      -293.6204
  15   2.0000     -10.759977      -292.7938
  16   2.0000      -8.690253      -236.4738
  17   2.0000      -8.616034      -234.4542
  18   2.0000      -8.532674      -232.1859
  19   2.0000      -6.475867      -176.2173
  20   2.0000      -6.474246      -176.1732
  21   2.0000      -6.473495      -176.1528
  22   2.0000      -6.403100      -174.2372
  23   2.0000      -6.400238      -174.1593
  24   2.0000      -6.399305      -174.1339
  25   2.0000      -6.314985      -171.8395
  26   2.0000      -6.312367      -171.7682
  27   2.0000      -6.312294      -171.7662
  28   2.0000      -1.243365       -33.8337
  29   2.0000      -1.192143       -32.4399
  30   2.0000      -1.165415       -31.7126
  31   2.0000      -1.133207       -30.8361
  32   2.0000      -1.049371       -28.5548
  33   2.0000      -1.006096       -27.3773
  34   2.0000      -0.938581       -25.5401
  35   2.0000      -0.907350       -24.6903
  36   2.0000      -0.847926       -23.0732
  37   2.0000      -0.838003       -22.8032
  38   2.0000      -0.797049       -21.6888
  39   2.0000      -0.699087       -19.0231
  40   2.0000      -0.689131       -18.7522
  41   2.0000      -0.627834       -17.0842
  42   2.0000      -0.585350       -15.9282
  43   2.0000      -0.568764       -15.4769
  44   2.0000      -0.546218       -14.8633
  45   2.0000      -0.531940       -14.4748
  46   2.0000      -0.514495       -14.0001
  47   2.0000      -0.496971       -13.5233
  48   2.0000      -0.485301       -13.2057
  49   2.0000      -0.483535       -13.1576
  50   2.0000      -0.464904       -12.6507
  51   2.0000      -0.456837       -12.4312
  52   2.0000      -0.442825       -12.0499
  53   2.0000      -0.438573       -11.9342
  54   2.0000      -0.420776       -11.4499
  55   2.0000      -0.411405       -11.1949
  56   2.0000      -0.408444       -11.1143
  57   2.0000      -0.378587       -10.3019
  58   2.0000      -0.369077       -10.0431
  59   2.0000      -0.356206        -9.6929
  60   2.0000      -0.349760        -9.5174
  61   2.0000      -0.334505        -9.1023
  62   2.0000      -0.318919        -8.6782
  63   2.0000      -0.310177        -8.4403
  64   2.0000      -0.292921        -7.9708
  65   2.0000      -0.284968        -7.7544
  66   2.0000      -0.269591        -7.3360
  67   2.0000      -0.257810        -7.0154
  68   2.0000      -0.241766        -6.5788
  69   2.0000      -0.229375        -6.2416
  70   2.0000      -0.219685        -5.9779
  71   2.0000      -0.181163        -4.9297
  72   0.0000       0.076638         2.0854
  73   0.0000       0.078027         2.1232
  74   0.0000       0.097942         2.6651
  75   0.0000       0.100030         2.7220
  76   0.0000       0.110348         3.0027

MULLIKEN ATOMIC CHARGES
-----------------------
   0 C :    0.810881
   1 S :    2.016820
   2 O :   -0.981982
   3 O :   -0.995869
   4 N :   -1.044401
   5 H :    0.126881
   6 S :   -0.355023
   7 C :    0.643232
   8 C :    0.191524
   9 C :   -1.370137
  10 C :    0.454027
  11 S :    2.060828
  12 O :   -1.037646
  13 O :   -1.003643
  14 H :    0.376697
  15 C :   -0.323304
  16 C :   -0.729015
  17 O :   -0.937097
  18 H :    0.308538
  19 H :    0.251447
  20 H :    0.283656
  21 H :    0.253586
Sum of atomic charges:   -1.0000000

LOEWDIN ATOMIC CHARGES
----------------------
   0 C :   -0.617598
   1 S :   -0.213729
   2 O :   -0.028892
   3 O :   -0.015437
   4 N :    0.279126
   5 H :   -0.585989
   6 S :    1.327963
   7 C :   -0.551347
   8 C :   -0.364606
   9 C :    0.037275
  10 C :   -0.623962
  11 S :    0.251554
  12 O :    0.048655
  13 O :    0.046314
  14 H :   -0.190637
  15 C :    0.234630
  16 C :    0.180410
  17 O :    0.451796
  18 H :   -0.157772
  19 H :   -0.157203
  20 H :   -0.174950
  21 H :   -0.175601

  Mayer bond orders larger than 0.100000
B(  0-C ,  1-S ) :   0.9119 B(  0-C ,  2-O ) :   0.1447 B(  0-C ,  3-O ) :  -0.1029
B(  0-C ,  4-N ) :   0.1140 B(  0-C ,  6-S ) :   0.8533 B(  0-C ,  8-C ) :  -0.1562
B(  0-C ,  9-C ) :   0.8989 B(  1-S ,  2-O ) :   1.1777 B(  1-S ,  3-O ) :   1.2083
B(  1-S ,  4-N ) :   1.3589 B(  3-O ,  9-C ) :   0.1034 B(  4-N ,  5-H ) :   0.9165
B(  6-S ,  7-C ) :   0.7173 B(  6-S ,  8-C ) :   0.2209 B(  6-S ,  9-C ) :   0.1184
B(  7-C ,  8-C ) :   1.2180 B(  7-C , 10-C ) :   0.7066 B(  7-C , 17-O ) :   0.1021
B(  8-C ,  9-C ) :   1.0510 B(  8-C , 10-C ) :   0.1686 B(  8-C , 11-S ) :   0.9243
B(  8-C , 13-O ) :   0.1866 B(  9-C , 10-C ) :   0.1136 B(  9-C , 14-H ) :   0.8149
B( 10-C , 15-C ) :   0.8862 B( 10-C , 16-C ) :   0.1123 B( 10-C , 17-O ) :   0.9946
B( 11-S , 12-O ) :   1.0932 B( 11-S , 13-O ) :   0.9716 B( 11-S , 16-C ) :   0.9615
B( 12-O , 16-C ) :   0.1415 B( 13-O , 16-C ) :   0.1123 B( 15-C , 16-C ) :   1.0129
B( 15-C , 18-H ) :   0.8654 B( 15-C , 19-H ) :   0.9721 B( 16-C , 20-H ) :   0.9219
B( 16-C , 21-H ) :   0.9198

MP2 TOTAL ENERGY:    -1894.074411310 Eh
Dispersion correction           -0.021960659
FINAL SINGLE POINT ENERGY     -1894.096371968848

DIPOLE MOMENT
-------------
                                X             Y             Z
Electronic contribution:     -3.83921      -2.81367       4.11602
Nuclear contribution   :      5.07547       4.59045      -8.57396
                        -----------------------------------------
Total Dipole Moment    :      1.23627       1.77678      -4.45794
                        -----------------------------------------
Magnitude (a.u.)       :      4.95565
Magnitude (Debye)      :     12.59627

Rotational constants in cm-1:     0.024733     0.008733     0.007023
Rotational constants in MHz :   741.483295   261.806639   210.552938

                             ****ORCA TERMINATED NORMALLY****
TOTAL RUN TIME: 0 days 0 hours 4 minutes 47 seconds 766 msec
