                         Program Version 5.0.3 -  RELEASE  -
|  1> !PAL8
|  2> !RI-DSD-PBEP86 D3BJ aug-cc-pVTZ aug-cc-pVTZ/C TightSCF
|  3> %maxcore 5000
|  4>
|  5> * xyz -1 1
|  6> C -1.3999192539  1.0211834355 -0.3510071895
|  7> S -1.3713621196  0.487567941  1.4042033039
|  8> O -2.5986132181  1.1396105108  1.9141638818
|  9> O -1.4023129139 -0.9755200904  1.2770265067
| 10> N -0.0196715038  0.9824121322  1.9959871416
| 11> H -0.1621599418  1.9545330873  2.2772482434
| 12> S -2.8770940197  1.3955262575 -1.1527196386
| 13> C -2.0154800769  1.640944578 -2.6451398034
| 14> C -0.65268888  1.467197393 -2.5034037223
| 15> C -0.3097054816  1.1107836912 -1.1658925941
| 16> S -2.7751195289  2.1173771874 -4.1380091567
| 17> N  0.2905674706  1.6866690678 -3.5077736941
| 18> H  0.6978812626  0.9391346701 -0.8006255726
| 19> C -1.3161078065  2.7283635607 -5.0418378708
| 20> C -0.1942770527  1.7033589202 -4.8772206256
| 21> O -3.2776501093  0.9573057843 -4.8881574995
| 22> O -3.7095666571  3.2253727431 -3.907140682
| 23> C -1.7034028156  2.9427594044 -6.5056024749
| 24> C -2.4414642152  4.2580967834 -6.7437391172
| 25> O -1.6272743151  5.3851199445 -6.449751469
| 26> H  1.1318058319  1.1375430085 -3.377286642
| 27> H -1.0399407266  3.6747686065 -4.5624517871
| 28> H  0.6358370212  1.9964841688 -5.5284491217
| 29> H -0.56363562  0.7176434488 -5.2075156151
| 30> H -2.3139311288  2.0994383296 -6.8510231761
| 31> H -0.7835177714  2.9382518415 -7.1104397765
| 32> H -3.3061852917  4.3368612353 -6.0814432773
| 33> H -2.7953521648  4.2989497952 -7.7835957522
| 34> H -0.8714379731  5.3875255638 -7.053634819
| 35> *
| 36>
| 37>
| 38>
| 39>                          ****END OF INPUT****

CARTESIAN COORDINATES (ANGSTROEM)
---------------------------------
  C     -1.399919    1.021183   -0.351007
  S     -1.371362    0.487568    1.404203
  O     -2.598613    1.139611    1.914164
  O     -1.402313   -0.975520    1.277027
  N     -0.019672    0.982412    1.995987
  H     -0.162160    1.954533    2.277248
  S     -2.877094    1.395526   -1.152720
  C     -2.015480    1.640945   -2.645140
  C     -0.652689    1.467197   -2.503404
  C     -0.309705    1.110784   -1.165893
  S     -2.775120    2.117377   -4.138009
  N      0.290567    1.686669   -3.507774
  H      0.697881    0.939135   -0.800626
  C     -1.316108    2.728364   -5.041838
  C     -0.194277    1.703359   -4.877221
  O     -3.277650    0.957306   -4.888157
  O     -3.709567    3.225373   -3.907141
  C     -1.703403    2.942759   -6.505602
  C     -2.441464    4.258097   -6.743739
  O     -1.627274    5.385120   -6.449751
  H      1.131806    1.137543   -3.377287
  H     -1.039941    3.674769   -4.562452
  H      0.635837    1.996484   -5.528449
  H     -0.563636    0.717643   -5.207516
  H     -2.313931    2.099438   -6.851023
  H     -0.783518    2.938252   -7.110440
  H     -3.306185    4.336861   -6.081443
  H     -2.795352    4.298950   -7.783596
  H     -0.871438    5.387526   -7.053635

 Total Charge           Charge          ....   -1
 Multiplicity           Mult            ....    1
 Number of Electrons    NEL             ....  162
 Basis Dimension        Dim             .... 1093

ORBITAL ENERGIES
----------------

  NO   OCC          E(Eh)            E(eV)
   0   2.0000     -90.925670     -2474.2133
   1   2.0000     -90.864957     -2472.5612
   2   2.0000     -90.737218     -2469.0852
   3   2.0000     -19.964643      -543.2656
   4   2.0000     -19.916311      -541.9504
   5   2.0000     -19.915048      -541.9160
   6   2.0000     -19.842042      -539.9294
   7   2.0000     -19.840717      -539.8933
   8   2.0000     -15.041477      -409.2994
   9   2.0000     -14.902694      -405.5229
  10   2.0000     -10.812490      -294.2228
  11   2.0000     -10.811443      -294.1943
  12   2.0000     -10.809269      -294.1352
  13   2.0000     -10.799959      -293.8818
  14   2.0000     -10.777242      -293.2637
  15   2.0000     -10.775554      -293.2177
  16   2.0000     -10.774757      -293.1960
  17   2.0000     -10.736668      -292.1596
  18   2.0000      -8.672639      -235.9945
  19   2.0000      -8.605983      -234.1807
  20   2.0000      -8.511987      -231.6230
  21   2.0000      -6.458190      -175.7363
  22   2.0000      -6.456543      -175.6915
  23   2.0000      -6.456065      -175.6785
  24   2.0000      -6.392927      -173.9604
  25   2.0000      -6.390212      -173.8865
  26   2.0000      -6.389331      -173.8625
  27   2.0000      -6.294641      -171.2859
  28   2.0000      -6.291979      -171.2134
  29   2.0000      -6.291090      -171.1893
  30   2.0000      -1.224122       -33.3101
  31   2.0000      -1.179274       -32.0897
  32   2.0000      -1.154235       -31.4083
  33   2.0000      -1.112115       -30.2622
  34   2.0000      -1.076230       -29.2857
  35   2.0000      -1.036758       -28.2116
  36   2.0000      -0.967563       -26.3287
  37   2.0000      -0.930371       -25.3167
  38   2.0000      -0.899240       -24.4696
  39   2.0000      -0.847481       -23.0611
  40   2.0000      -0.825058       -22.4510
  41   2.0000      -0.793917       -21.6036
  42   2.0000      -0.723976       -19.7004
  43   2.0000      -0.717959       -19.5367
  44   2.0000      -0.668160       -18.1816
  45   2.0000      -0.639829       -17.4106
  46   2.0000      -0.587400       -15.9840
  47   2.0000      -0.570269       -15.5178
  48   2.0000      -0.565022       -15.3750
  49   2.0000      -0.549309       -14.9475
  50   2.0000      -0.533080       -14.5059
  51   2.0000      -0.517487       -14.0815
  52   2.0000      -0.498884       -13.5753
  53   2.0000      -0.493774       -13.4363
  54   2.0000      -0.483139       -13.1469
  55   2.0000      -0.469206       -12.7677
  56   2.0000      -0.464470       -12.6389
  57   2.0000      -0.448850       -12.2138
  58   2.0000      -0.435228       -11.8432
  59   2.0000      -0.423353       -11.5200
  60   2.0000      -0.413226       -11.2444
  61   2.0000      -0.407699       -11.0941
  62   2.0000      -0.404134       -10.9971
  63   2.0000      -0.399185       -10.8624
  64   2.0000      -0.389475       -10.5982
  65   2.0000      -0.366639        -9.9767
  66   2.0000      -0.344056        -9.3623
  67   2.0000      -0.342971        -9.3327
  68   2.0000      -0.337370        -9.1803
  69   2.0000      -0.324129        -8.8200
  70   2.0000      -0.318098        -8.6559
  71   2.0000      -0.310958        -8.4616
  72   2.0000      -0.307414        -8.3652
  73   2.0000      -0.290527        -7.9056
  74   2.0000      -0.274702        -7.4750
  75   2.0000      -0.263165        -7.1611
  76   2.0000      -0.240790        -6.5522
  77   2.0000      -0.211933        -5.7670
  78   2.0000      -0.210709        -5.7337
  79   2.0000      -0.189031        -5.1438
  80   2.0000      -0.177960        -4.8425
  81   0.0000       0.064455         1.7539
  82   0.0000       0.078316         2.1311
  83   0.0000       0.086235         2.3466
  84   0.0000       0.093818         2.5529
  85   0.0000       0.107199         2.9170

MULLIKEN ATOMIC CHARGES
-----------------------
   0 C :    0.848966
   1 S :    2.018051
   2 O :   -0.981277
   3 O :   -0.988518
   4 N :   -1.080338
   5 H :    0.108607
   6 S :   -0.564693
   7 C :    0.063833
   8 C :    0.514411
   9 C :   -1.159074
  10 S :    2.128728
  11 N :   -0.500074
  12 H :    0.373300
  13 C :    0.531515
  14 C :   -0.560638
  15 O :   -1.114295
  16 O :   -1.081836
  17 C :   -0.809465
  18 C :   -0.332532
  19 O :   -0.612304
  20 H :   -0.026990
  21 H :    0.351853
  22 H :    0.278947
  23 H :    0.254677
  24 H :    0.222645
  25 H :    0.305530
  26 H :    0.398414
  27 H :    0.275913
  28 H :    0.136647
Sum of atomic charges:   -1.0000000

LOEWDIN ATOMIC CHARGES
----------------------
   0 C :   -0.639778
   1 S :   -0.212430
   2 O :   -0.039035
   3 O :   -0.023048
   4 N :    0.276134
   5 H :   -0.584797
   6 S :    1.240398
   7 C :   -0.642228
   8 C :   -0.391908
   9 C :    0.072138
  10 S :    0.215084
  11 N :    0.560904
  12 H :   -0.192136
  13 C :   -0.104211
  14 C :    0.147212
  15 O :    0.054085
  16 O :    0.053351
  17 C :    0.237466
  18 C :    0.028998
  19 O :    0.814148
  20 H :   -0.280873
  21 H :   -0.160859
  22 H :   -0.141371
  23 H :   -0.132617
  24 H :   -0.170270
  25 H :   -0.149901
  26 H :   -0.196591
  27 H :   -0.150599
  28 H :   -0.487267

  Mayer bond orders larger than 0.100000
B(  0-C ,  1-S ) :   0.8618 B(  0-C ,  2-O ) :   0.2030 B(  0-C ,  6-S ) :   0.9665
B(  0-C ,  8-C ) :  -0.1244 B(  0-C ,  9-C ) :   0.9794 B(  1-S ,  2-O ) :   1.1706
B(  1-S ,  3-O ) :   1.2917 B(  1-S ,  4-N ) :   1.2651 B(  1-S ,  5-H ) :   0.1190
B(  3-O ,  4-N ) :   0.1062 B(  4-N ,  5-H ) :   0.9333 B(  6-S ,  7-C ) :   0.6196
B(  6-S ,  8-C ) :   0.2801 B(  6-S , 10-S ) :  -0.1462 B(  7-C ,  8-C ) :   1.3667
B(  7-C , 10-S ) :   1.1129 B(  7-C , 16-O ) :   0.1265 B(  8-C ,  9-C ) :   0.8475
B(  8-C , 11-N ) :   0.8710 B(  8-C , 13-C ) :  -0.1227 B(  9-C , 12-H ) :   0.8939
B( 10-S , 13-C ) :   0.9577 B( 10-S , 14-C ) :   0.1167 B( 10-S , 15-O ) :   0.9968
B( 10-S , 16-O ) :   0.9812 B( 11-N , 14-C ) :   0.8232 B( 11-N , 20-H ) :   1.1311
B( 13-C , 14-C ) :   0.8077 B( 13-C , 17-C ) :   0.7656 B( 13-C , 21-H ) :   0.7527
B( 14-C , 22-H ) :   0.9850 B( 14-C , 23-H ) :   0.9855 B( 17-C , 18-C ) :   0.8624
B( 17-C , 24-H ) :   1.0245 B( 17-C , 25-H ) :   0.8887 B( 18-C , 19-O ) :   0.7380
B( 18-C , 26-H ) :   0.8789 B( 18-C , 27-H ) :   1.0095 B( 19-O , 28-H ) :   1.0128

MP2 TOTAL ENERGY:    -1989.789311836 Eh
Dispersion correction           -0.026042137
FINAL SINGLE POINT ENERGY     -1989.815353973441

DIPOLE MOMENT
-------------
                                X             Y             Z
Electronic contribution:     -7.64304      -7.33648      17.64712
Nuclear contribution   :      9.55789       9.35220     -24.09796
                        -----------------------------------------
Total Dipole Moment    :      1.91485       2.01572      -6.45084
                        -----------------------------------------
Magnitude (a.u.)       :      7.02447
Magnitude (Debye)      :     17.85478

Rotational constants in cm-1:     0.028605     0.005206     0.004935
Rotational constants in MHz :   857.569851   156.078241   147.951121

                             ****ORCA TERMINATED NORMALLY****
TOTAL RUN TIME: 0 days 0 hours 9 minutes 1 seconds 524 msec
