                         Program Version 5.0.3 -  RELEASE  -
|  1> !PAL8
|  2> !RI-DSD-PBEP86 D3BJ aug-cc-pVTZ aug-cc-pVTZ/C TightSCF
|  3> %maxcore 3000
|  4>
|  5>
|  6> * xyz -1 1
|  7> C  1.0954542487  0.4381697685  0.3003125012
|  8> C -1.2370034836  0.8581294395  0.1297768534
|  9> N -2.5952395419  0.9648903826 -0.1696455408
| 10> S -0.1961509919 -0.3103249371 -0.6221365092
| 11> S  2.8115624609 -0.225794685  0.1590327281
| 12> O  3.0398405817 -0.750790036  1.5201962232
| 13> O  2.5923682583 -1.2224122514 -0.905442465
| 14> N  3.7410125388  0.923053554 -0.3102245533
| 15> H  3.98240709  1.4625485885  0.5234486295
| 16> N  0.7102462022  1.4317953467  1.0201722343
| 17> N -0.6397278318  1.6801412029  0.9392872879
| 18> H -3.074680794  0.0726125706 -0.2052608656
| 19> H -3.0449267375  1.5936090561  0.4894274763
| 20> *
| 21>
| 22>                          ****END OF INPUT****

CARTESIAN COORDINATES (ANGSTROEM)
---------------------------------
  C      1.095454    0.438170    0.300313
  C     -1.237003    0.858129    0.129777
  N     -2.595240    0.964890   -0.169646
  S     -0.196151   -0.310325   -0.622137
  S      2.811562   -0.225795    0.159033
  O      3.039841   -0.750790    1.520196
  O      2.592368   -1.222412   -0.905442
  N      3.741013    0.923054   -0.310225
  H      3.982407    1.462549    0.523449
  N      0.710246    1.431795    1.020172
  N     -0.639728    1.680141    0.939287
  H     -3.074681    0.072613   -0.205261
  H     -3.044927    1.593609    0.489427

 Total Charge           Charge          ....   -1
 Multiplicity           Mult            ....    1
 Number of Electrons    NEL             ....   92
 Basis Dimension        Dim             ....  537

ORBITAL ENERGIES
----------------

  NO   OCC          E(Eh)            E(eV)
   0   2.0000     -90.856233     -2472.3238
   1   2.0000     -90.730929     -2468.9141
   2   2.0000     -19.834215      -539.7164
   3   2.0000     -19.833133      -539.6870
   4   2.0000     -15.027145      -408.9094
   5   2.0000     -15.004397      -408.2904
   6   2.0000     -15.003302      -408.2606
   7   2.0000     -14.893019      -405.2596
   8   2.0000     -10.828230      -294.6511
   9   2.0000     -10.780224      -293.3448
  10   2.0000      -8.597329      -233.9452
  11   2.0000      -8.507493      -231.5007
  12   2.0000      -6.384321      -173.7262
  13   2.0000      -6.381515      -173.6498
  14   2.0000      -6.380581      -173.6244
  15   2.0000      -6.289968      -171.1587
  16   2.0000      -6.287298      -171.0861
  17   2.0000      -6.286694      -171.0696
  18   2.0000      -1.147563       -31.2268
  19   2.0000      -1.122118       -30.5344
  20   2.0000      -1.028993       -28.0003
  21   2.0000      -1.024665       -27.8825
  22   2.0000      -0.892572       -24.2881
  23   2.0000      -0.870147       -23.6779
  24   2.0000      -0.842669       -22.9302
  25   2.0000      -0.653491       -17.7824
  26   2.0000      -0.613421       -16.6920
  27   2.0000      -0.569021       -15.4839
  28   2.0000      -0.526111       -14.3162
  29   2.0000      -0.499413       -13.5897
  30   2.0000      -0.443490       -12.0680
  31   2.0000      -0.430127       -11.7044
  32   2.0000      -0.426598       -11.6083
  33   2.0000      -0.407195       -11.0803
  34   2.0000      -0.390900       -10.6369
  35   2.0000      -0.339452        -9.2370
  36   2.0000      -0.301015        -8.1910
  37   2.0000      -0.299010        -8.1365
  38   2.0000      -0.268944        -7.3183
  39   2.0000      -0.256087        -6.9685
  40   2.0000      -0.249589        -6.7917
  41   2.0000      -0.242268        -6.5925
  42   2.0000      -0.232722        -6.3327
  43   2.0000      -0.202012        -5.4970
  44   2.0000      -0.201060        -5.4711
  45   2.0000      -0.167260        -4.5514
  46   0.0000       0.084094         2.2883
  47   0.0000       0.108495         2.9523
  48   0.0000       0.133189         3.6243
  49   0.0000       0.145740         3.9658
  50   0.0000       0.154869         4.2142

MULLIKEN ATOMIC CHARGES
-----------------------
   0 C :    0.296875
   1 C :    0.357171
   2 N :   -0.453937
   3 S :   -0.018471
   4 S :    2.161250
   5 O :   -0.987795
   6 O :   -0.982549
   7 N :   -1.037950
   8 H :    0.136498
   9 N :   -0.401401
  10 N :   -0.348033
  11 H :    0.117943
  12 H :    0.160398
Sum of atomic charges:   -1.0000000

LOEWDIN ATOMIC CHARGES
----------------------
   0 C :   -0.863531
   1 C :   -0.919354
   2 N :    0.752256
   3 S :    1.220416
   4 S :   -0.234364
   5 O :   -0.038072
   6 O :   -0.049265
   7 N :    0.265864
   8 H :   -0.589751
   9 N :    0.032173
  10 N :    0.094453
  11 H :   -0.337470
  12 H :   -0.333354

  Mayer bond orders larger than 0.100000
B(  0-C ,  3-S ) :   0.9225 B(  0-C ,  4-S ) :   0.7274 B(  0-C ,  7-N ) :   0.1371
B(  0-C ,  9-N ) :   1.4645 B(  1-C ,  2-N ) :   0.8316 B(  1-C ,  3-S ) :   1.0956
B(  1-C , 10-N ) :   1.5011 B(  2-N , 10-N ) :  -0.1022 B(  2-N , 11-H ) :   1.0338
B(  2-N , 12-H ) :   0.9455 B(  4-S ,  5-O ) :   1.1998 B(  4-S ,  6-O ) :   1.2185
B(  4-S ,  7-N ) :   1.2935 B(  4-S ,  8-H ) :   0.1020 B(  4-S ,  9-N ) :   0.1194
B(  5-O ,  7-N ) :   0.1253 B(  7-N ,  8-H ) :   0.9164

MP2 TOTAL ENERGY:    -1242.733800199 Eh
Dispersion correction           -0.011139192
FINAL SINGLE POINT ENERGY     -1242.744939390499

DIPOLE MOMENT
-------------
                                X             Y             Z
Electronic contribution:      1.21691      -2.20214      -0.51712
Nuclear contribution   :     -4.92362       2.32235       0.44837
                        -----------------------------------------
Total Dipole Moment    :     -3.70671       0.12020      -0.06875
                        -----------------------------------------
Magnitude (a.u.)       :      3.70929
Magnitude (Debye)      :      9.42827

Rotational constants in cm-1:     0.086734     0.021857     0.019528
Rotational constants in MHz :  2600.234669   655.260297   585.434494

                             ****ORCA TERMINATED NORMALLY****
TOTAL RUN TIME: 0 days 0 hours 1 minutes 19 seconds 652 msec
