                         Program Version 5.0.3 -  RELEASE  -
|  1> !PAL8
|  2> !RI-DSD-PBEP86 D3BJ aug-cc-pVTZ aug-cc-pVTZ/C TightSCF
|  3> %maxcore 3000
|  4>
|  5>
|  6> * xyz -1 1
|  7> C  1.1144903721  0.5817836975 -0.0546725543
|  8> C -1.3164891219  0.5837171601  0.1888319999
|  9> S -0.100255652 -0.6572748844  0.2729110775
| 10> S  2.8834439795  0.0645400353 -0.0916917605
| 11> O  2.7274861835 -1.3783564872  0.1640670636
| 12> O  3.283255786  0.4625424633 -1.4559135372
| 13> N  3.6042139489  0.7810400701  1.0821595513
| 14> H  3.8325794208  1.7211787396  0.7526229907
| 15> N  0.6796097239  1.782766232 -0.2071802507
| 16> C -0.6980143161  1.8269307199 -0.0779731294
| 17> C -2.703155808  0.491150288  0.3425335783
| 18> C -3.4656166637  1.647116919  0.2254329381
| 19> C -2.8574752095  2.8859055392 -0.0414902234
| 20> C -1.4816958475  2.9826702491 -0.1937616822
| 21> H -3.1749168089 -0.4656015038  0.5488125226
| 22> H -4.5446945829  1.5909878056  0.3416426788
| 23> H -3.4736779894  3.7766603734 -0.1294540836
| 24> H -0.994024415  3.9305715837 -0.400510179
| 25> *
| 26>
| 27>                          ****END OF INPUT****

CARTESIAN COORDINATES (ANGSTROEM)
---------------------------------
  C      1.114490    0.581784   -0.054673
  C     -1.316489    0.583717    0.188832
  S     -0.100256   -0.657275    0.272911
  S      2.883444    0.064540   -0.091692
  O      2.727486   -1.378356    0.164067
  O      3.283256    0.462542   -1.455914
  N      3.604214    0.781040    1.082160
  H      3.832579    1.721179    0.752623
  N      0.679610    1.782766   -0.207180
  C     -0.698014    1.826931   -0.077973
  C     -2.703156    0.491150    0.342534
  C     -3.465617    1.647117    0.225433
  C     -2.857475    2.885906   -0.041490
  C     -1.481696    2.982670   -0.193762
  H     -3.174917   -0.465602    0.548813
  H     -4.544695    1.590988    0.341643
  H     -3.473678    3.776660   -0.129454
  H     -0.994024    3.930572   -0.400510

 Total Charge           Charge          ....   -1
 Multiplicity           Mult            ....    1
 Number of Electrons    NEL             ....  110
 Basis Dimension        Dim             ....  721

ORBITAL ENERGIES
----------------

  NO   OCC          E(Eh)            E(eV)
   0   2.0000     -90.857873     -2472.3684
   1   2.0000     -90.724776     -2468.7467
   2   2.0000     -19.836639      -539.7824
   3   2.0000     -19.836549      -539.7800
   4   2.0000     -14.986731      -407.8097
   5   2.0000     -14.896869      -405.3644
   6   2.0000     -10.797529      -293.8157
   7   2.0000     -10.771904      -293.1184
   8   2.0000     -10.769649      -293.0570
   9   2.0000     -10.755854      -292.6817
  10   2.0000     -10.751160      -292.5539
  11   2.0000     -10.749997      -292.5223
  12   2.0000     -10.746270      -292.4209
  13   2.0000      -8.599211      -233.9964
  14   2.0000      -8.500515      -231.3108
  15   2.0000      -6.386150      -173.7760
  16   2.0000      -6.383397      -173.7010
  17   2.0000      -6.382499      -173.6766
  18   2.0000      -6.283028      -170.9699
  19   2.0000      -6.280533      -170.9020
  20   2.0000      -6.279593      -170.8764
  21   2.0000      -1.149646       -31.2835
  22   2.0000      -1.058927       -28.8149
  23   2.0000      -1.032062       -28.0838
  24   2.0000      -0.945101       -25.7175
  25   2.0000      -0.892625       -24.2896
  26   2.0000      -0.867988       -23.6192
  27   2.0000      -0.818679       -22.2774
  28   2.0000      -0.792317       -21.5600
  29   2.0000      -0.678620       -18.4662
  30   2.0000      -0.638581       -17.3767
  31   2.0000      -0.627683       -17.0801
  32   2.0000      -0.558168       -15.1885
  33   2.0000      -0.509084       -13.8529
  34   2.0000      -0.496811       -13.5189
  35   2.0000      -0.494499       -13.4560
  36   2.0000      -0.453436       -12.3386
  37   2.0000      -0.441738       -12.0203
  38   2.0000      -0.425674       -11.5832
  39   2.0000      -0.415017       -11.2932
  40   2.0000      -0.403831       -10.9888
  41   2.0000      -0.393574       -10.7097
  42   2.0000      -0.373488       -10.1631
  43   2.0000      -0.334168        -9.0932
  44   2.0000      -0.325038        -8.8447
  45   2.0000      -0.301608        -8.2072
  46   2.0000      -0.282435        -7.6855
  47   2.0000      -0.274336        -7.4651
  48   2.0000      -0.264605        -7.2003
  49   2.0000      -0.253056        -6.8860
  50   2.0000      -0.233377        -6.3505
  51   2.0000      -0.203912        -5.5487
  52   2.0000      -0.198891        -5.4121
  53   2.0000      -0.191622        -5.2143
  54   2.0000      -0.168321        -4.5802
  55   0.0000       0.080838         2.1997
  56   0.0000       0.090125         2.4524
  57   0.0000       0.103164         2.8072
  58   0.0000       0.113243         3.0815
  59   0.0000       0.133387         3.6296

MULLIKEN ATOMIC CHARGES
-----------------------
   0 C :    0.378590
   1 C :    0.886606
   2 S :   -0.240110
   3 S :    2.065335
   4 O :   -0.995512
   5 O :   -0.997403
   6 N :   -1.053099
   7 H :    0.139996
   8 N :   -0.635413
   9 C :    0.286868
  10 C :   -1.111470
  11 C :   -0.272656
  12 C :   -0.389301
  13 C :   -0.900599
  14 H :    0.362750
  15 H :    0.576940
  16 H :    0.501249
  17 H :    0.397228
Sum of atomic charges:   -1.0000000

LOEWDIN ATOMIC CHARGES
----------------------
   0 C :   -0.788428
   1 C :   -0.543694
   2 S :    1.246932
   3 S :   -0.224304
   4 O :   -0.044329
   5 O :   -0.032874
   6 N :    0.270328
   7 H :   -0.588935
   8 N :    0.272150
   9 C :   -0.436896
  10 C :    0.122447
  11 C :    0.156164
  12 C :    0.163833
  13 C :    0.198084
  14 H :   -0.196948
  15 H :   -0.197282
  16 H :   -0.195527
  17 H :   -0.180720

  Mayer bond orders larger than 0.100000
B(  0-C ,  1-C ) :  -0.1517 B(  0-C ,  2-S ) :   0.8880 B(  0-C ,  3-S ) :   0.8271
B(  0-C ,  6-N ) :   0.1720 B(  0-C ,  8-N ) :   1.3803 B(  1-C ,  2-S ) :   0.6154
B(  1-C ,  8-N ) :  -0.1225 B(  1-C ,  9-C ) :   1.0039 B(  1-C , 10-C ) :   0.7801
B(  1-C , 11-C ) :  -0.1221 B(  2-S ,  8-N ) :   0.1400 B(  2-S ,  9-C ) :   0.3365
B(  3-S ,  4-O ) :   1.2107 B(  3-S ,  5-O ) :   1.2013 B(  3-S ,  6-N ) :   1.2560
B(  3-S ,  7-H ) :   0.1122 B(  3-S ,  8-N ) :   0.1079 B(  5-O ,  6-N ) :   0.1240
B(  6-N ,  7-H ) :   0.9111 B(  8-N ,  9-C ) :   0.4578 B(  9-C , 11-C ) :   0.1111
B(  9-C , 13-C ) :   0.9898 B( 10-C , 11-C ) :   1.3471 B( 10-C , 14-H ) :   0.8885
B( 10-C , 15-H ) :  -0.1230 B( 11-C , 12-C ) :   1.0208 B( 11-C , 15-H ) :   0.5646
B( 12-C , 13-C ) :   1.2994 B( 12-C , 16-H ) :   0.6821 B( 13-C , 16-H ) :  -0.1271
B( 13-C , 17-H ) :   0.8493

MP2 TOTAL ENERGY:    -1324.839170738 Eh
Dispersion correction           -0.016426633
FINAL SINGLE POINT ENERGY     -1324.855597370638

DIPOLE MOMENT
-------------
                                X             Y             Z
Electronic contribution:      5.73169      -5.56022      -0.83751
Nuclear contribution   :     -9.99694       6.74109       0.95484
                        -----------------------------------------
Total Dipole Moment    :     -4.26525       1.18086       0.11733
                        -----------------------------------------
Magnitude (a.u.)       :      4.42725
Magnitude (Debye)      :     11.25318

Rotational constants in cm-1:     0.059572     0.012852     0.011293
Rotational constants in MHz :  1785.920188   385.292382   338.569278

                             ****ORCA TERMINATED NORMALLY****
TOTAL RUN TIME: 0 days 0 hours 2 minutes 40 seconds 943 msec
