                         Program Version 5.0.3 -  RELEASE  -
|  1> !PAL8
|  2> !RI-DSD-PBEP86 D3BJ aug-cc-pVTZ aug-cc-pVTZ/C TightSCF
|  3> %maxcore 5000
|  4>
|  5>
|  6> * xyz -1 1
|  7> C  1.1014362159  0.4381022812 -0.1048052275
|  8> C -1.2259950787  0.700934636  0.1277507685
|  9> N -2.6108985512  0.713442152  0.2973860499
| 10> S -0.1852107857 -0.6649954867  0.3178222467
| 11> S  2.8339069576 -0.1858281552 -0.2193355566
| 12> O  3.5105144098  0.6122923007  0.8211343409
| 13> O  2.590400114 -1.6074670437  0.0843669412
| 14> N  3.3193082974  0.015677996 -1.6785355345
| 15> H  3.6349054956  0.9851619058 -1.749332545
| 16> C -3.3943318888 -0.3478625814  0.6558841493
| 17> O -2.9436785532 -1.4590298218  0.870191122
| 18> C -4.8759434291 -0.0471684358  0.7687251447
| 19> N  0.7143356465  1.6470201094 -0.3444580539
| 20> N -0.6369725228  1.8117473321 -0.2094877732
| 21> H -3.0257928179  1.6220110125  0.1301613825
| 22> H -5.2019258534 -0.2968500891  1.7815092
| 23> H -5.4135218285 -0.6980596823  0.0745710035
| 24> H -5.1289968276  0.9942335705  0.5550113416
| 25> *
| 26>
| 27>                          ****END OF INPUT****

CARTESIAN COORDINATES (ANGSTROEM)
---------------------------------
  C      1.101436    0.438102   -0.104805
  C     -1.225995    0.700935    0.127751
  N     -2.610899    0.713442    0.297386
  S     -0.185211   -0.664995    0.317822
  S      2.833907   -0.185828   -0.219336
  O      3.510514    0.612292    0.821134
  O      2.590400   -1.607467    0.084367
  N      3.319308    0.015678   -1.678536
  H      3.634905    0.985162   -1.749333
  C     -3.394332   -0.347863    0.655884
  O     -2.943679   -1.459030    0.870191
  C     -4.875943   -0.047168    0.768725
  N      0.714336    1.647020   -0.344458
  N     -0.636973    1.811747   -0.209488
  H     -3.025793    1.622011    0.130161
  H     -5.201926   -0.296850    1.781509
  H     -5.413522   -0.698060    0.074571
  H     -5.128997    0.994234    0.555011

 Total Charge           Charge          ....   -1
 Multiplicity           Mult            ....    1
 Number of Electrons    NEL             ....  114
 Basis Dimension        Dim             ....  721

ORBITAL ENERGIES
----------------

  NO   OCC          E(Eh)            E(eV)
   0   2.0000     -90.857295     -2472.3527
   1   2.0000     -90.739526     -2469.1480
   2   2.0000     -19.922976      -542.1318
   3   2.0000     -19.834959      -539.7367
   4   2.0000     -19.834568      -539.7260
   5   2.0000     -15.071113      -410.1058
   6   2.0000     -15.016395      -408.6169
   7   2.0000     -15.008865      -408.4120
   8   2.0000     -14.894560      -405.3016
   9   2.0000     -10.886537      -296.2377
  10   2.0000     -10.839374      -294.9544
  11   2.0000     -10.781976      -293.3925
  12   2.0000     -10.781706      -293.3851
  13   2.0000      -8.598430      -233.9752
  14   2.0000      -8.514845      -231.7007
  15   2.0000      -6.385454      -173.7570
  16   2.0000      -6.382598      -173.6793
  17   2.0000      -6.381678      -173.6543
  18   2.0000      -6.297146      -171.3540
  19   2.0000      -6.294470      -171.2812
  20   2.0000      -6.293914      -171.2661
  21   2.0000      -1.199500       -32.6401
  22   2.0000      -1.149823       -31.2883
  23   2.0000      -1.133006       -30.8307
  24   2.0000      -1.064053       -28.9544
  25   2.0000      -1.030548       -28.0426
  26   2.0000      -0.900976       -24.5168
  27   2.0000      -0.887243       -24.1431
  28   2.0000      -0.864980       -23.5373
  29   2.0000      -0.838591       -22.8192
  30   2.0000      -0.699868       -19.0444
  31   2.0000      -0.647680       -17.6243
  32   2.0000      -0.623905       -16.9773
  33   2.0000      -0.577191       -15.7062
  34   2.0000      -0.535215       -14.5639
  35   2.0000      -0.514727       -14.0064
  36   2.0000      -0.505721       -13.7614
  37   2.0000      -0.470997       -12.8165
  38   2.0000      -0.453177       -12.3316
  39   2.0000      -0.452192       -12.3048
  40   2.0000      -0.438706       -11.9378
  41   2.0000      -0.429476       -11.6866
  42   2.0000      -0.416309       -11.3284
  43   2.0000      -0.400870       -10.9082
  44   2.0000      -0.393164       -10.6985
  45   2.0000      -0.329797        -8.9742
  46   2.0000      -0.311041        -8.4638
  47   2.0000      -0.302617        -8.2346
  48   2.0000      -0.300405        -8.1744
  49   2.0000      -0.270781        -7.3683
  50   2.0000      -0.259203        -7.0533
  51   2.0000      -0.253571        -6.9000
  52   2.0000      -0.246722        -6.7136
  53   2.0000      -0.235248        -6.4014
  54   2.0000      -0.208877        -5.6838
  55   2.0000      -0.202696        -5.5156
  56   2.0000      -0.168914        -4.5964
  57   0.0000       0.070402         1.9157
  58   0.0000       0.092719         2.5230
  59   0.0000       0.094367         2.5679
  60   0.0000       0.107715         2.9311
  61   0.0000       0.132535         3.6065

MULLIKEN ATOMIC CHARGES
-----------------------
   0 C :    0.287930
   1 C :    0.100787
   2 N :    0.038007
   3 S :    0.317914
   4 S :    2.100552
   5 O :   -0.994166
   6 O :   -0.980042
   7 N :   -1.047718
   8 H :    0.135312
   9 C :    0.485418
  10 O :   -0.780269
  11 C :   -0.844305
  12 N :   -0.461349
  13 N :   -0.386899
  14 H :    0.121130
  15 H :    0.294823
  16 H :    0.292090
  17 H :    0.320787
Sum of atomic charges:   -1.0000000

LOEWDIN ATOMIC CHARGES
----------------------
   0 C :   -0.854306
   1 C :   -0.864058
   2 N :    0.462656
   3 S :    1.271241
   4 S :   -0.232173
   5 O :   -0.035554
   6 O :   -0.044984
   7 N :    0.266890
   8 H :   -0.589733
   9 C :   -0.708345
  10 O :    0.434102
  11 C :    0.581446
  12 N :    0.042330
  13 N :    0.103665
  14 H :   -0.300609
  15 H :   -0.173431
  16 H :   -0.173120
  17 H :   -0.186020

  Mayer bond orders larger than 0.100000
B(  0-C ,  3-S ) :   0.9828 B(  0-C ,  4-S ) :   0.7456 B(  0-C ,  7-N ) :   0.1715
B(  0-C , 12-N ) :   1.3806 B(  1-C ,  2-N ) :   0.8223 B(  1-C ,  3-S ) :   1.0936
B(  1-C ,  9-C ) :  -0.2317 B(  1-C , 10-O ) :   0.1165 B(  1-C , 13-N ) :   1.5100
B(  2-N ,  9-C ) :   0.9556 B(  2-N , 13-N ) :  -0.1120 B(  2-N , 14-H ) :   1.0582
B(  4-S ,  5-O ) :   1.2091 B(  4-S ,  6-O ) :   1.2485 B(  4-S ,  7-N ) :   1.2543
B(  4-S ,  8-H ) :   0.1011 B(  4-S , 12-N ) :   0.1328 B(  5-O ,  7-N ) :   0.1280
B(  7-N ,  8-H ) :   0.9180 B(  9-C , 10-O ) :   1.5034 B(  9-C , 11-C ) :   0.4841
B( 11-C , 15-H ) :   0.9849 B( 11-C , 16-H ) :   0.9860 B( 11-C , 17-H ) :   0.9205

MP2 TOTAL ENERGY:    -1395.197097196 Eh
Dispersion correction           -0.014446380
FINAL SINGLE POINT ENERGY     -1395.211543576936

DIPOLE MOMENT
-------------
                                X             Y             Z
Electronic contribution:      9.32535      -1.38035       0.30300
Nuclear contribution   :    -14.86995       2.37855       0.27465
                        -----------------------------------------
Total Dipole Moment    :     -5.54461       0.99821       0.57765
                        -----------------------------------------
Magnitude (a.u.)       :      5.66328
Magnitude (Debye)      :     14.39492

Rotational constants in cm-1:     0.064230     0.010517     0.009576
Rotational constants in MHz :  1925.573673   315.277377   287.070778

                             ****ORCA TERMINATED NORMALLY****
TOTAL RUN TIME: 0 days 0 hours 2 minutes 40 seconds 428 msec
