                         Program Version 5.0.3 -  RELEASE  -
|  1> !PAL8
|  2> !RI-DSD-PBEP86 D3BJ aug-cc-pVTZ aug-cc-pVTZ/C TightSCF
|  3> %maxcore 5000
|  4>
|  5> * xyz -1 1
|  6> C -0.9107941325  0.2602712353 -0.7717091738
|  7> N -1.719790556  0.9535078422 -1.4903737122
|  8> N -1.087546681  1.3936997779 -2.6179094742
|  9> C  0.20947827  1.059460074 -2.7853278464
| 10> N  0.8623368541  1.4689666617 -3.8541794676
| 11> S  0.710616968  0.0897656352 -1.4117061177
| 12> S -1.3695765201 -0.4927228836  0.8550954121
| 13> O -2.4451867008 -1.4198809074  0.4544859339
| 14> O -0.0691060411 -1.0829417035  1.2077096424
| 15> N -1.7669248367  0.6579355845  1.8152740487
| 16> H -2.7527487138  0.8595766698  1.6375270311
| 17> C -1.8182957717  2.2017824853 -3.5730263212
| 18> H -2.8351787627  2.2948763891 -3.1943933185
| 19> H -1.8115051338  1.7165852282 -4.5521336088
| 20> H -1.3484169054  3.1841456932 -3.6679115584
| 21> C  2.1771723016  1.0917266249 -3.9660067907
| 22> C  2.845687336  1.6084112663 -5.2244203558
| 23> O  2.7943919229  0.4049299649 -3.1550065123
| 24> H  2.7963374396  2.7014639291 -5.2472259842
| 25> H  2.3100039798  1.2401247886 -6.1048976929
| 26> H  3.8853576832  1.2794596444 -5.2539311331
| 27> *
| 28>
| 29>                          ****END OF INPUT****

CARTESIAN COORDINATES (ANGSTROEM)
---------------------------------
  C     -0.910794    0.260271   -0.771709
  N     -1.719791    0.953508   -1.490374
  N     -1.087547    1.393700   -2.617909
  C      0.209478    1.059460   -2.785328
  N      0.862337    1.468967   -3.854179
  S      0.710617    0.089766   -1.411706
  S     -1.369577   -0.492723    0.855095
  O     -2.445187   -1.419881    0.454486
  O     -0.069106   -1.082942    1.207710
  N     -1.766925    0.657936    1.815274
  H     -2.752749    0.859577    1.637527
  C     -1.818296    2.201782   -3.573026
  H     -2.835179    2.294876   -3.194393
  H     -1.811505    1.716585   -4.552134
  H     -1.348417    3.184146   -3.667912
  C      2.177172    1.091727   -3.966007
  C      2.845687    1.608411   -5.224420
  O      2.794392    0.404930   -3.155007
  H      2.796337    2.701464   -5.247226
  H      2.310004    1.240125   -6.104898
  H      3.885358    1.279460   -5.253931

 Total Charge           Charge          ....   -1
 Multiplicity           Mult            ....    1
 Number of Electrons    NEL             ....  122
 Basis Dimension        Dim             ....  813

ORBITAL ENERGIES
----------------

  NO   OCC          E(Eh)            E(eV)
   0   2.0000     -90.868096     -2472.6466
   1   2.0000     -90.744652     -2469.2875
   2   2.0000     -19.892575      -541.3045
   3   2.0000     -19.845420      -540.0213
   4   2.0000     -19.844898      -540.0071
   5   2.0000     -15.087679      -410.5566
   6   2.0000     -15.039075      -409.2340
   7   2.0000     -14.975243      -407.4971
   8   2.0000     -14.905307      -405.5940
   9   2.0000     -10.858707      -295.4804
  10   2.0000     -10.839718      -294.9637
  11   2.0000     -10.797201      -293.8068
  12   2.0000     -10.784979      -293.4742
  13   2.0000     -10.739716      -292.2425
  14   2.0000      -8.609152      -234.2669
  15   2.0000      -8.519575      -231.8294
  16   2.0000      -6.396326      -174.0529
  17   2.0000      -6.393278      -173.9699
  18   2.0000      -6.392306      -173.9435
  19   2.0000      -6.301946      -171.4847
  20   2.0000      -6.299160      -171.4088
  21   2.0000      -6.298205      -171.3829
  22   2.0000      -1.181806       -32.1586
  23   2.0000      -1.158373       -31.5209
  24   2.0000      -1.154055       -31.4034
  25   2.0000      -1.041635       -28.3443
  26   2.0000      -1.018668       -27.7194
  27   2.0000      -0.947798       -25.7909
  28   2.0000      -0.901173       -24.5222
  29   2.0000      -0.870537       -23.6885
  30   2.0000      -0.808683       -22.0054
  31   2.0000      -0.782726       -21.2991
  32   2.0000      -0.694107       -18.8876
  33   2.0000      -0.636223       -17.3125
  34   2.0000      -0.597595       -16.2614
  35   2.0000      -0.549543       -14.9538
  36   2.0000      -0.514241       -13.9932
  37   2.0000      -0.503514       -13.7013
  38   2.0000      -0.492294       -13.3960
  39   2.0000      -0.477932       -13.0052
  40   2.0000      -0.455600       -12.3975
  41   2.0000      -0.454034       -12.3549
  42   2.0000      -0.444417       -12.0932
  43   2.0000      -0.432924       -11.7805
  44   2.0000      -0.413309       -11.2467
  45   2.0000      -0.409337       -11.1386
  46   2.0000      -0.406881       -11.0718
  47   2.0000      -0.381863       -10.3910
  48   2.0000      -0.372031       -10.1235
  49   2.0000      -0.316378        -8.6091
  50   2.0000      -0.312426        -8.5015
  51   2.0000      -0.306274        -8.3341
  52   2.0000      -0.298559        -8.1242
  53   2.0000      -0.274640        -7.4733
  54   2.0000      -0.271898        -7.3987
  55   2.0000      -0.262662        -7.1474
  56   2.0000      -0.250748        -6.8232
  57   2.0000      -0.240092        -6.5332
  58   2.0000      -0.212967        -5.7951
  59   2.0000      -0.202955        -5.5227
  60   2.0000      -0.177157        -4.8207
  61   0.0000       0.083763         2.2793
  62   0.0000       0.092719         2.5230
  63   0.0000       0.101520         2.7625
  64   0.0000       0.106749         2.9048
  65   0.0000       0.116637         3.1738

MULLIKEN ATOMIC CHARGES
-----------------------
   0 C :    0.108213
   1 N :   -1.075255
   2 N :    0.947525
   3 C :   -0.262178
   4 N :   -0.219924
   5 S :    0.366003
   6 S :    2.131941
   7 O :   -0.992059
   8 O :   -0.970972
   9 N :   -1.046792
  10 H :    0.140434
  11 C :   -0.803334
  12 H :    0.432437
  13 H :    0.331380
  14 H :    0.328031
  15 C :    0.305427
  16 C :   -0.807034
  17 O :   -0.778482
  18 H :    0.251131
  19 H :    0.249607
  20 H :    0.363900
Sum of atomic charges:   -1.0000000

LOEWDIN ATOMIC CHARGES
----------------------
   0 C :   -0.812739
   1 N :    0.192656
   2 N :   -0.048091
   3 C :   -0.813371
   4 N :    0.292593
   5 S :    1.294984
   6 S :   -0.222689
   7 O :   -0.031898
   8 O :   -0.036842
   9 N :    0.270966
  10 H :   -0.589116
  11 C :    0.485138
  12 H :   -0.178430
  13 H :   -0.165032
  14 H :   -0.163228
  15 C :   -0.844323
  16 C :    0.537326
  17 O :    0.398241
  18 H :   -0.185258
  19 H :   -0.185165
  20 H :   -0.195721

  Mayer bond orders larger than 0.100000
B(  0-C ,  1-N ) :   1.6954 B(  0-C ,  5-S ) :   0.8920 B(  0-C ,  6-S ) :   0.7197
B(  0-C ,  9-N ) :   0.1667 B(  1-N ,  2-N ) :  -0.8982 B(  1-N , 11-C ) :  -0.1151
B(  2-N ,  3-C ) :   1.2325 B(  2-N ,  4-N ) :  -0.1030 B(  2-N , 11-C ) :   0.9010
B(  3-C ,  4-N ) :   0.9131 B(  3-C ,  5-S ) :   1.1406 B(  3-C , 11-C ) :  -0.1129
B(  3-C , 15-C ) :  -0.1314 B(  3-C , 17-O ) :   0.2069 B(  4-N , 11-C ) :  -0.1086
B(  4-N , 15-C ) :   1.0090 B(  4-N , 17-O ) :  -0.1392 B(  5-S , 17-O ) :  -0.1066
B(  6-S ,  7-O ) :   1.2084 B(  6-S ,  8-O ) :   1.2191 B(  6-S ,  9-N ) :   1.3038
B(  6-S , 10-H ) :   0.1039 B(  7-O ,  9-N ) :   0.1250 B(  9-N , 10-H ) :   0.9065
B( 11-C , 12-H ) :   0.7869 B( 11-C , 13-H ) :   0.9223 B( 11-C , 14-H ) :   0.9271
B( 15-C , 16-C ) :   0.5919 B( 15-C , 17-O ) :   1.4171 B( 16-C , 18-H ) :   1.0209
B( 16-C , 19-H ) :   1.0203 B( 16-C , 20-H ) :   0.8621

MP2 TOTAL ENERGY:    -1434.445786627 Eh
Dispersion correction           -0.016341490
FINAL SINGLE POINT ENERGY     -1434.462128116788

DIPOLE MOMENT
-------------
                                X             Y             Z
Electronic contribution:     -1.07786      -7.46606      11.09771
Nuclear contribution   :      1.30280       9.54549     -14.99609
                        -----------------------------------------
Total Dipole Moment    :      0.22495       2.07943      -3.89837
                        -----------------------------------------
Magnitude (a.u.)       :      4.42402
Magnitude (Debye)      :     11.24496

Rotational constants in cm-1:     0.041456     0.010623     0.008940
Rotational constants in MHz :  1242.826623   318.483025   268.013915

                             ****ORCA TERMINATED NORMALLY****
TOTAL RUN TIME: 0 days 0 hours 3 minutes 31 seconds 833 msec
