                         Program Version 5.0.3 -  RELEASE  -
|  1> !PAL8
|  2> !RI-DSD-PBEP86 D3BJ aug-cc-pVTZ aug-cc-pVTZ/C TightSCF
|  3> %maxcore 5000
|  4>
|  5> * xyz -1 1
|  6> C -1.1520069132  0.6523987757 -1.4491575858
|  7> S -1.3420765494  0.5853057393  0.3824209038
|  8> O -1.9628666464 -0.7407010805  0.5726508013
|  9> O  0.0695621621  0.7248514715  0.7832570103
| 10> N -2.1851062344  1.8159488449  0.8144667233
| 11> H -3.1643705856  1.562382787  0.6685641476
| 12> N -2.1024301532  0.5969194252 -2.311727278
| 13> C -1.6061339788  0.7176249103 -3.599548215
| 14> C -0.2095122875  0.8741134866 -3.6948524073
| 15> S  0.4798696274  0.8654463455 -2.0992560782
| 16> C -2.3738299099  0.693789948 -4.7733671074
| 17> C -1.7501329425  0.8251376146 -5.9999770782
| 18> C -0.3522408727  0.9819540545 -6.0810749683
| 19> C  0.43298968  1.0083627555 -4.9345155012
| 20> O  0.1466410869  1.1020341805 -7.353524723
| 21> C  1.5414355738  1.265573864 -7.4987347155
| 22> C  1.8357573724  1.3754669865 -8.9816530827
| 23> H -3.4502323839  0.5722346437 -4.698867718
| 24> H -2.3150832948  0.8110929074 -6.9268959919
| 25> H  1.5093589767  1.1282184368 -4.9793278507
| 26> H  2.0661178229  0.4053185573 -7.0585638428
| 27> H  1.8686440362  2.1704819689 -6.9666481678
| 28> H  1.5060282508  0.4719648906 -9.5022673059
| 29> H  2.9101417781  1.5036826607 -9.1467200747
| 30> H  1.3099023853  2.2330418255 -9.4107318937
| 31> *
| 32>
| 33>                          ****END OF INPUT****

CARTESIAN COORDINATES (ANGSTROEM)
---------------------------------
  C     -1.152007    0.652399   -1.449158
  S     -1.342077    0.585306    0.382421
  O     -1.962867   -0.740701    0.572651
  O      0.069562    0.724851    0.783257
  N     -2.185106    1.815949    0.814467
  H     -3.164371    1.562383    0.668564
  N     -2.102430    0.596919   -2.311727
  C     -1.606134    0.717625   -3.599548
  C     -0.209512    0.874113   -3.694852
  S      0.479870    0.865446   -2.099256
  C     -2.373830    0.693790   -4.773367
  C     -1.750133    0.825138   -5.999977
  C     -0.352241    0.981954   -6.081075
  C      0.432990    1.008363   -4.934516
  O      0.146641    1.102034   -7.353525
  C      1.541436    1.265574   -7.498735
  C      1.835757    1.375467   -8.981653
  H     -3.450232    0.572235   -4.698868
  H     -2.315083    0.811093   -6.926896
  H      1.509359    1.128218   -4.979328
  H      2.066118    0.405319   -7.058564
  H      1.868644    2.170482   -6.966648
  H      1.506028    0.471965   -9.502267
  H      2.910142    1.503683   -9.146720
  H      1.309902    2.233042   -9.410732

 Total Charge           Charge          ....   -1
 Multiplicity           Mult            ....    1
 Number of Electrons    NEL             ....  134
 Basis Dimension        Dim             ....  951

ORBITAL ENERGIES
----------------

  NO   OCC          E(Eh)            E(eV)
   0   2.0000     -90.856364     -2472.3274
   1   2.0000     -90.724013     -2468.7259
   2   2.0000     -19.974592      -543.5363
   3   2.0000     -19.835205      -539.7434
   4   2.0000     -19.835017      -539.7383
   5   2.0000     -14.985665      -407.7807
   6   2.0000     -14.895241      -405.3201
   7   2.0000     -10.820233      -294.4335
   8   2.0000     -10.814851      -294.2870
   9   2.0000     -10.793538      -293.7071
  10   2.0000     -10.772619      -293.1379
  11   2.0000     -10.765355      -292.9402
  12   2.0000     -10.765152      -292.9347
  13   2.0000     -10.753259      -292.6111
  14   2.0000     -10.750990      -292.5493
  15   2.0000     -10.745673      -292.4046
  16   2.0000      -8.597684      -233.9549
  17   2.0000      -8.499690      -231.2883
  18   2.0000      -6.384568      -173.7329
  19   2.0000      -6.381875      -173.6596
  20   2.0000      -6.380992      -173.6356
  21   2.0000      -6.282192      -170.9471
  22   2.0000      -6.279724      -170.8800
  23   2.0000      -6.278783      -170.8544
  24   2.0000      -1.211556       -32.9681
  25   2.0000      -1.147988       -31.2383
  26   2.0000      -1.056848       -28.7583
  27   2.0000      -1.030505       -28.0415
  28   2.0000      -0.946569       -25.7575
  29   2.0000      -0.891115       -24.2485
  30   2.0000      -0.878279       -23.8992
  31   2.0000      -0.866481       -23.5781
  32   2.0000      -0.807561       -21.9749
  33   2.0000      -0.794548       -21.6207
  34   2.0000      -0.721051       -19.6208
  35   2.0000      -0.664509       -18.0822
  36   2.0000      -0.643160       -17.5013
  37   2.0000      -0.627149       -17.0656
  38   2.0000      -0.570003       -15.5106
  39   2.0000      -0.549178       -14.9439
  40   2.0000      -0.537650       -14.6302
  41   2.0000      -0.520580       -14.1657
  42   2.0000      -0.497406       -13.5351
  43   2.0000      -0.462719       -12.5912
  44   2.0000      -0.457811       -12.4577
  45   2.0000      -0.440644       -11.9905
  46   2.0000      -0.440037       -11.9740
  47   2.0000      -0.435913       -11.8618
  48   2.0000      -0.417189       -11.3523
  49   2.0000      -0.410188       -11.1618
  50   2.0000      -0.409677       -11.1479
  51   2.0000      -0.399182       -10.8623
  52   2.0000      -0.392202       -10.6724
  53   2.0000      -0.369686       -10.0597
  54   2.0000      -0.365664        -9.9502
  55   2.0000      -0.323164        -8.7937
  56   2.0000      -0.309584        -8.4242
  57   2.0000      -0.298526        -8.1233
  58   2.0000      -0.281138        -7.6502
  59   2.0000      -0.274274        -7.4634
  60   2.0000      -0.263130        -7.1601
  61   2.0000      -0.251541        -6.8448
  62   2.0000      -0.230271        -6.2660
  63   2.0000      -0.202370        -5.5068
  64   2.0000      -0.193927        -5.2770
  65   2.0000      -0.188535        -5.1303
  66   2.0000      -0.162209        -4.4139
  67   0.0000       0.068083         1.8526
  68   0.0000       0.082814         2.2535
  69   0.0000       0.088752         2.4151
  70   0.0000       0.092393         2.5141
  71   0.0000       0.101291         2.7563

MULLIKEN ATOMIC CHARGES
-----------------------
   0 C :    0.184322
   1 S :    2.100697
   2 O :   -1.008433
   3 O :   -1.001165
   4 N :   -1.071903
   5 H :    0.144547
   6 N :   -0.779255
   7 C :    0.364151
   8 C :    0.805993
   9 S :   -0.290250
  10 C :   -0.807574
  11 C :   -0.672874
  12 C :    1.098987
  13 C :   -0.731711
  14 O :   -0.716271
  15 C :   -0.234465
  16 C :   -1.101836
  17 H :    0.445252
  18 H :    0.505996
  19 H :    0.277283
  20 H :    0.318523
  21 H :    0.319118
  22 H :    0.271606
  23 H :    0.318709
  24 H :    0.260554
Sum of atomic charges:   -1.0000000

LOEWDIN ATOMIC CHARGES
----------------------
   0 C :   -0.787398
   1 S :   -0.225130
   2 O :   -0.033907
   3 O :   -0.045428
   4 N :    0.269150
   5 H :   -0.589824
   6 N :    0.269252
   7 C :   -0.438093
   8 C :   -0.543574
   9 S :    1.249446
  10 C :    0.199375
  11 C :    0.189596
  12 C :   -0.397332
  13 C :    0.142816
  14 O :    0.594849
  15 C :   -0.020908
  16 C :    0.572025
  17 H :   -0.176309
  18 H :   -0.189711
  19 H :   -0.216810
  20 H :   -0.151882
  21 H :   -0.151671
  22 H :   -0.172135
  23 H :   -0.174253
  24 H :   -0.172143

  Mayer bond orders larger than 0.100000
B(  0-C ,  1-S ) :   0.8186 B(  0-C ,  4-N ) :   0.1729 B(  0-C ,  6-N ) :   1.4992
B(  0-C ,  7-C ) :   0.1303 B(  0-C ,  8-C ) :  -0.1786 B(  0-C ,  9-S ) :   1.0485
B(  1-S ,  2-O ) :   1.1646 B(  1-S ,  3-O ) :   1.2197 B(  1-S ,  4-N ) :   1.2423
B(  1-S ,  5-H ) :   0.1064 B(  2-O ,  4-N ) :   0.1271 B(  4-N ,  5-H ) :   0.9040
B(  6-N ,  8-C ) :  -0.1389 B(  6-N ,  9-S ) :   0.1729 B(  6-N , 10-C ) :   0.1332
B(  7-C ,  8-C ) :   0.9214 B(  7-C ,  9-S ) :   0.4435 B(  7-C , 10-C ) :   0.8771
B(  7-C , 19-H ) :  -0.1164 B(  8-C ,  9-S ) :   0.3888 B(  8-C , 12-C ) :  -0.1785
B(  8-C , 13-C ) :   0.8046 B( 10-C , 11-C ) :   1.4190 B( 10-C , 12-C ) :  -0.2234
B( 10-C , 17-H ) :   0.7556 B( 11-C , 12-C ) :   0.6397 B( 11-C , 14-O ) :   0.1539
B( 11-C , 18-H ) :   0.6383 B( 12-C , 13-C ) :   1.0801 B( 12-C , 14-O ) :   0.5548
B( 13-C , 14-O ) :  -0.3330 B( 13-C , 19-H ) :   0.9470 B( 14-O , 15-C ) :   1.0159
B( 15-C , 16-C ) :   0.7458 B( 15-C , 20-H ) :   0.9135 B( 15-C , 21-H ) :   0.9107
B( 16-C , 22-H ) :   0.9975 B( 16-C , 23-H ) :   0.9265 B( 16-C , 24-H ) :   1.0149

MP2 TOTAL ENERGY:    -1478.475364622 Eh
Dispersion correction           -0.020012735
FINAL SINGLE POINT ENERGY     -1478.495377357624

DIPOLE MOMENT
-------------
                                X             Y             Z
Electronic contribution:     -5.62208      -2.91686      22.16434
Nuclear contribution   :      7.22899       3.30301     -28.39660
                        -----------------------------------------
Total Dipole Moment    :      1.60691       0.38615      -6.23226
                        -----------------------------------------
Magnitude (a.u.)       :      6.44766
Magnitude (Debye)      :     16.38866

Rotational constants in cm-1:     0.047864     0.006127     0.005628
Rotational constants in MHz :  1434.926842   183.677394   168.723436

                             ****ORCA TERMINATED NORMALLY****
TOTAL RUN TIME: 0 days 0 hours 5 minutes 2 seconds 13 msec
