                         Program Version 5.0.3 -  RELEASE  -
|  1> !PAL8
|  2> !RI-DSD-PBEP86 D3BJ aug-cc-pVTZ aug-cc-pVTZ/C TightSCF
|  3> %maxcore 3000
|  4>
|  5>
|  6> * xyz -1 1
|  7> C -1.4449850179  0.6554196063 -0.8709314164
|  8> C -2.5479954519  0.7385343173 -1.7250014405
|  9> Cl -4.1592523064  0.9704194385 -1.0976903794
| 10> C -2.432643564  0.6561491472 -3.1070101241
| 11> H -3.3169779777  0.7616240394 -3.7293379669
| 12> C -1.1826943572  0.456919769 -3.6996083908
| 13> C -0.0775426955  0.3613450349 -2.8470325732
| 14> S  1.4957993669 -0.0043701584 -3.5373927712
| 15> C -0.2016053906  0.4696987921 -1.4620404611
| 16> H  0.6686697917  0.4072243896 -0.812935364
| 17> S -1.5421664639  0.7864624843  0.9712599614
| 18> O -2.463096428 -0.3252343582  1.2948079549
| 19> O -0.1268884711  0.6029846677  1.3321602755
| 20> N -2.0414096846  2.2157766136  1.3336646644
| 21> H -3.0618132418  2.1808382439  1.3155071657
| 22> N -1.0760927056  0.4300019354 -5.0908917953
| 23> C  0.1437745251  0.0349421578 -5.7601881607
| 24> N  1.2752682734  0.6799591195 -5.0904230677
| 25> O  2.556928812  0.7473727703 -2.8883499834
| 26> O  1.6610388899 -1.4508536676 -3.6935535539
| 27> C  0.046826032  0.4047959873 -7.2351646556
| 28> Cl -0.0790565788  2.1622329875 -7.534662639
| 29> H -1.9198299231  0.1197453211 -5.556904541
| 30> H  0.2902032539 -1.0661593282 -5.7461832209
| 31> H -0.8491899639 -0.0604464547 -7.6527231693
| 32> H  0.9124877985  0.0326903823 -7.7831343533
| 33> C  2.5359354683  0.6338079861 -5.8393104395
| 34> H  2.4693274755  1.331301534 -6.6769344571
| 35> H  2.7739998146 -0.3775369805 -6.2015905329
| 36> H  3.3338047204  0.9702342224 -5.1757095648
| 37> *
| 38>
| 39>                          ****END OF INPUT****

CARTESIAN COORDINATES (ANGSTROEM)
---------------------------------
  C     -1.444985    0.655420   -0.870931
  C     -2.547995    0.738534   -1.725001
  Cl    -4.159252    0.970419   -1.097690
  C     -2.432644    0.656149   -3.107010
  H     -3.316978    0.761624   -3.729338
  C     -1.182694    0.456920   -3.699608
  C     -0.077543    0.361345   -2.847033
  S      1.495799   -0.004370   -3.537393
  C     -0.201605    0.469699   -1.462040
  H      0.668670    0.407224   -0.812935
  S     -1.542166    0.786462    0.971260
  O     -2.463096   -0.325234    1.294808
  O     -0.126888    0.602985    1.332160
  N     -2.041410    2.215777    1.333665
  H     -3.061813    2.180838    1.315507
  N     -1.076093    0.430002   -5.090892
  C      0.143775    0.034942   -5.760188
  N      1.275268    0.679959   -5.090423
  O      2.556929    0.747373   -2.888350
  O      1.661039   -1.450854   -3.693554
  C      0.046826    0.404796   -7.235165
  Cl    -0.079057    2.162233   -7.534663
  H     -1.919830    0.119745   -5.556905
  H      0.290203   -1.066159   -5.746183
  H     -0.849190   -0.060446   -7.652723
  H      0.912488    0.032690   -7.783134
  C      2.535935    0.633808   -5.839310
  H      2.469327    1.331302   -6.676934
  H      2.774000   -0.377537   -6.201591
  H      3.333805    0.970234   -5.175710

 Total Charge           Charge          ....   -1
 Multiplicity           Mult            ....    1
 Number of Electrons    NEL             ....  184
 Basis Dimension        Dim             .... 1166

ORBITAL ENERGIES
----------------

  NO   OCC          E(Eh)            E(eV)
   0   2.0000    -103.545508     -2817.6165
   1   2.0000    -103.512674     -2816.7231
   2   2.0000     -90.952228     -2474.9359
   3   2.0000     -90.855872     -2472.3140
   4   2.0000     -19.933388      -542.4151
   5   2.0000     -19.930755      -542.3434
   6   2.0000     -19.834162      -539.7150
   7   2.0000     -19.833588      -539.6994
   8   2.0000     -15.065166      -409.9440
   9   2.0000     -15.053393      -409.6236
  10   2.0000     -14.892915      -405.2568
  11   2.0000     -10.866472      -295.6917
  12   2.0000     -10.852578      -295.3137
  13   2.0000     -10.825434      -294.5750
  14   2.0000     -10.821238      -294.4608
  15   2.0000     -10.801133      -293.9138
  16   2.0000     -10.781927      -293.3912
  17   2.0000     -10.762202      -292.8544
  18   2.0000     -10.761457      -292.8341
  19   2.0000     -10.749212      -292.5009
  20   2.0000     -10.093570      -274.6600
  21   2.0000     -10.060627      -273.7636
  22   2.0000      -8.696926      -236.6554
  23   2.0000      -8.597109      -233.9392
  24   2.0000      -7.666711      -208.6218
  25   2.0000      -7.662168      -208.4982
  26   2.0000      -7.662101      -208.4964
  27   2.0000      -7.633784      -207.7258
  28   2.0000      -7.629336      -207.6048
  29   2.0000      -7.629008      -207.5959
  30   2.0000      -6.483488      -176.4247
  31   2.0000      -6.480655      -176.3476
  32   2.0000      -6.480088      -176.3322
  33   2.0000      -6.383873      -173.7140
  34   2.0000      -6.381479      -173.6489
  35   2.0000      -6.380440      -173.6206
  36   2.0000      -1.252718       -34.0882
  37   2.0000      -1.146673       -31.2026
  38   2.0000      -1.133754       -30.8510
  39   2.0000      -1.118309       -30.4307
  40   2.0000      -1.045616       -28.4527
  41   2.0000      -1.030269       -28.0351
  42   2.0000      -0.993597       -27.0371
  43   2.0000      -0.980108       -26.6701
  44   2.0000      -0.933374       -25.3984
  45   2.0000      -0.889251       -24.1977
  46   2.0000      -0.865296       -23.5459
  47   2.0000      -0.851136       -23.1606
  48   2.0000      -0.817419       -22.2431
  49   2.0000      -0.793190       -21.5838
  50   2.0000      -0.724606       -19.7175
  51   2.0000      -0.698342       -19.0028
  52   2.0000      -0.685600       -18.6561
  53   2.0000      -0.624559       -16.9951
  54   2.0000      -0.609497       -16.5853
  55   2.0000      -0.584010       -15.8917
  56   2.0000      -0.579242       -15.7620
  57   2.0000      -0.561011       -15.2659
  58   2.0000      -0.527953       -14.3663
  59   2.0000      -0.515598       -14.0301
  60   2.0000      -0.506637       -13.7863
  61   2.0000      -0.501063       -13.6346
  62   2.0000      -0.489983       -13.3331
  63   2.0000      -0.479746       -13.0546
  64   2.0000      -0.473807       -12.8929
  65   2.0000      -0.466011       -12.6808
  66   2.0000      -0.452900       -12.3240
  67   2.0000      -0.445887       -12.1332
  68   2.0000      -0.437231       -11.8977
  69   2.0000      -0.432359       -11.7651
  70   2.0000      -0.419880       -11.4255
  71   2.0000      -0.408138       -11.1060
  72   2.0000      -0.400286       -10.8923
  73   2.0000      -0.385266       -10.4836
  74   2.0000      -0.368520       -10.0279
  75   2.0000      -0.362883        -9.8746
  76   2.0000      -0.352218        -9.5843
  77   2.0000      -0.343788        -9.3549
  78   2.0000      -0.338738        -9.2175
  79   2.0000      -0.337037        -9.1712
  80   2.0000      -0.324116        -8.8197
  81   2.0000      -0.318934        -8.6786
  82   2.0000      -0.304719        -8.2918
  83   2.0000      -0.292264        -7.9529
  84   2.0000      -0.287832        -7.8323
  85   2.0000      -0.267467        -7.2782
  86   2.0000      -0.253249        -6.8913
  87   2.0000      -0.237478        -6.4621
  88   2.0000      -0.227960        -6.2031
  89   2.0000      -0.202824        -5.5191
  90   2.0000      -0.202113        -5.4998
  91   2.0000      -0.165577        -4.5056
  92   0.0000       0.063903         1.7389
  93   0.0000       0.077282         2.1030
  94   0.0000       0.088073         2.3966
  95   0.0000       0.092587         2.5194
  96   0.0000       0.101949         2.7742

MULLIKEN ATOMIC CHARGES
-----------------------
   0 C :   -0.243667
   1 C :    0.572556
   2 Cl:   -0.516881
   3 C :   -0.484443
   4 H :    0.445295
   5 C :    0.617174
   6 C :    1.050202
   7 S :    2.214468
   8 C :   -1.473439
   9 H :    0.317751
  10 S :    2.119738
  11 O :   -1.037196
  12 O :   -1.004068
  13 N :   -1.119902
  14 H :    0.131801
  15 N :   -0.476736
  16 C :    0.596417
  17 N :   -0.383881
  18 O :   -1.024770
  19 O :   -1.123039
  20 C :   -0.356605
  21 Cl:   -0.365373
  22 H :   -0.116993
  23 H :    0.311756
  24 H :    0.189175
  25 H :    0.236947
  26 C :   -1.082415
  27 H :    0.299926
  28 H :    0.360406
  29 H :    0.345796
Sum of atomic charges:   -1.0000000

LOEWDIN ATOMIC CHARGES
----------------------
   0 C :   -0.292707
   1 C :   -0.782096
   2 Cl:    1.012342
   3 C :    0.115747
   4 H :   -0.203262
   5 C :   -0.265014
   6 C :   -0.218712
   7 S :    0.181718
   8 C :    0.112752
   9 H :   -0.228461
  10 S :   -0.154522
  11 O :   -0.033344
  12 O :    0.013245
  13 N :    0.273760
  14 H :   -0.625570
  15 N :    0.555054
  16 C :   -0.394129
  17 N :    0.141075
  18 O :    0.096005
  19 O :    0.073698
  20 C :   -0.270534
  21 Cl:    0.964132
  22 H :   -0.285155
  23 H :   -0.144725
  24 H :   -0.223162
  25 H :   -0.238917
  26 C :    0.383161
  27 H :   -0.207561
  28 H :   -0.155858
  29 H :   -0.198959

  Mayer bond orders larger than 0.100000
B(  0-C ,  1-C ) :   1.5121 B(  0-C ,  2-Cl) :   0.7334 B(  0-C ,  3-C ) :  -0.1829
B(  0-C ,  5-C ) :  -0.1652 B(  0-C ,  6-C ) :   0.3743 B(  0-C ,  8-C ) :   1.0876
B(  0-C ,  9-H ) :   0.1183 B(  0-C , 10-S ) :   0.7278 B(  0-C , 11-O ) :   0.1264
B(  0-C , 12-O ) :   0.2208 B(  0-C , 13-N ) :   0.2080 B(  1-C ,  2-Cl) :  -0.1532
B(  1-C ,  3-C ) :   1.2891 B(  1-C ,  4-H ) :  -0.1050 B(  1-C ,  5-C ) :   0.1760
B(  1-C ,  8-C ) :   0.1493 B(  1-C , 10-S ) :   0.1211 B(  2-Cl,  5-C ) :  -0.1755
B(  3-C ,  4-H ) :   0.6558 B(  3-C ,  5-C ) :   0.3088 B(  3-C ,  7-S ) :  -0.1298
B(  3-C , 16-C ) :   0.1237 B(  4-H ,  6-C ) :   0.1543 B(  5-C ,  6-C ) :   0.6746
B(  5-C ,  7-S ) :   0.1848 B(  5-C ,  8-C ) :  -0.1757 B(  5-C , 15-N ) :   0.5493
B(  5-C , 19-O ) :   0.1015 B(  6-C ,  7-S ) :   0.6435 B(  6-C ,  8-C ) :   0.2346
B(  6-C , 15-N ) :  -0.3779 B(  6-C , 17-N ) :   0.1971 B(  6-C , 18-O ) :   0.3508
B(  6-C , 19-O ) :  -0.1094 B(  7-S ,  8-C ) :   0.1158 B(  7-S , 17-N ) :   1.1008
B(  7-S , 18-O ) :   0.7885 B(  7-S , 19-O ) :   0.9618 B(  8-C ,  9-H ) :   0.8462
B( 10-S , 11-O ) :   1.2015 B( 10-S , 12-O ) :   1.1932 B( 10-S , 13-N ) :   1.3072
B( 11-O , 13-N ) :   0.1074 B( 13-N , 14-H ) :   0.9148 B( 15-N , 16-C ) :   0.5908
B( 15-N , 21-Cl) :  -0.1536 B( 15-N , 22-H ) :   1.2819 B( 16-C , 17-N ) :   0.6176
B( 16-C , 19-O ) :   0.1346 B( 16-C , 20-C ) :   0.7742 B( 16-C , 23-H ) :   0.9745
B( 17-N , 19-O ) :   0.1355 B( 17-N , 26-C ) :   0.8930 B( 19-O , 26-C ) :   0.1232
B( 20-C , 21-Cl) :   0.8205 B( 20-C , 24-H ) :   1.0198 B( 20-C , 25-H ) :   0.9690
B( 26-C , 27-H ) :   0.9303 B( 26-C , 28-H ) :   0.8908 B( 26-C , 29-H ) :   0.9288

MP2 TOTAL ENERGY:    -2528.675209589 Eh
Dispersion correction           -0.029269517
FINAL SINGLE POINT ENERGY     -2528.704479106419

DIPOLE MOMENT
-------------
                                X             Y             Z
Electronic contribution:    -10.85650       3.84919       6.77929
Nuclear contribution   :     10.89067      -4.54148     -14.52685
                        -----------------------------------------
Total Dipole Moment    :      0.03417      -0.69229      -7.74757
                        -----------------------------------------
Magnitude (a.u.)       :      7.77851
Magnitude (Debye)      :     19.77140

Rotational constants in cm-1:     0.015403     0.004675     0.003903
Rotational constants in MHz :   461.779805   140.141345   117.004798

                             ****ORCA TERMINATED NORMALLY****
TOTAL RUN TIME: 0 days 0 hours 9 minutes 36 seconds 182 msec
