                         Program Version 5.0.3 -  RELEASE  -
|  1> !PAL8
|  2> !RI-DSD-PBEP86 D3BJ aug-cc-pVTZ aug-cc-pVTZ/C TightSCF
|  3> %maxcore 3000
|  4>
|  5>
|  6> * xyz -1 1
|  7> C -1.353945582  0.1344953813 -1.0986013999
|  8> C -2.3107856505  0.9469507315 -1.7126740685
|  9> Cl -3.8081751632  1.3530199167 -0.9106936752
| 10> C -2.1399293952  1.4645828808 -2.9932609656
| 11> H -2.9129761562  2.0894526963 -3.4325650369
| 12> C -0.9792112144  1.1656132959 -3.702886842
| 13> C  0.007649649  0.3695958606 -3.1050138624
| 14> C  1.28645742  0.1226041155 -3.8153136121
| 15> C -0.1912669057 -0.130077895 -1.8147093258
| 16> H  0.575954253 -0.7398798026 -1.34616723
| 17> S -1.5682855895 -0.624688763  0.5705852719
| 18> O -0.292432299 -1.3435436754  0.7216866714
| 19> O -1.7658374799  0.5679484933  1.4249495591
| 20> N -2.7705269076 -1.6156352977  0.4977424972
| 21> H -3.6110761179 -1.0628956603  0.6734434196
| 22> N -0.7464945942  1.6687281301 -4.993117602
| 23> C  0.0300378961  0.7731337573 -5.8336702466
| 24> N  1.3075351047  0.5233711269 -5.1510207761
| 25> C  0.2071879742  1.3948415411 -7.2079516563
| 26> H -1.6014760587  1.9676194698 -5.4519576124
| 27> H -0.5000181021 -0.1948473237 -5.943912988
| 28> H  0.7617050567  0.732582222 -7.8765636205
| 29> H  0.7357147709  2.348844071 -7.1282955074
| 30> O  2.2725928756 -0.3639847849 -3.2872079892
| 31> C  2.4585806962  0.176074468 -5.9290233723
| 32> C  2.7378055708 -1.1643473542 -6.2396747384
| 33> C  1.8967147604 -2.2887661961 -5.6971642838
| 34> C  3.8522831777 -1.4314158657 -7.0405258184
| 35> H  4.080673275 -2.4653409482 -7.2898920524
| 36> C  4.6718933382 -0.4098997873 -7.5157846783
| 37> H  5.5310573617 -0.6497447842 -8.1362671542
| 38> C  4.3926220554  0.9138488549 -7.1839727275
| 39> H  5.0329253003  1.7178567188 -7.5351430707
| 40> C  3.2880484672  1.1991481949 -6.3855505086
| 41> H  3.0550031143  2.2193886742 -6.0945028923
| 42> H -0.781471046  1.5727028199 -7.645059736
| 43> H  2.0448959738 -3.2009912821 -6.2819384659
| 44> H  0.8302300589 -2.0441320163 -5.7050709768
| 45> H  2.1709361122 -2.4884449838 -4.6557759266
| 46> *
| 47>
| 48>                          ****END OF INPUT****

CARTESIAN COORDINATES (ANGSTROEM)
---------------------------------
  C     -1.353946    0.134495   -1.098601
  C     -2.310786    0.946951   -1.712674
  Cl    -3.808175    1.353020   -0.910694
  C     -2.139929    1.464583   -2.993261
  H     -2.912976    2.089453   -3.432565
  C     -0.979211    1.165613   -3.702887
  C      0.007650    0.369596   -3.105014
  C      1.286457    0.122604   -3.815314
  C     -0.191267   -0.130078   -1.814709
  H      0.575954   -0.739880   -1.346167
  S     -1.568286   -0.624689    0.570585
  O     -0.292432   -1.343544    0.721687
  O     -1.765837    0.567948    1.424950
  N     -2.770527   -1.615635    0.497742
  H     -3.611076   -1.062896    0.673443
  N     -0.746495    1.668728   -4.993118
  C      0.030038    0.773134   -5.833670
  N      1.307535    0.523371   -5.151021
  C      0.207188    1.394842   -7.207952
  H     -1.601476    1.967619   -5.451958
  H     -0.500018   -0.194847   -5.943913
  H      0.761705    0.732582   -7.876564
  H      0.735715    2.348844   -7.128296
  O      2.272593   -0.363985   -3.287208
  C      2.458581    0.176074   -5.929023
  C      2.737806   -1.164347   -6.239675
  C      1.896715   -2.288766   -5.697164
  C      3.852283   -1.431416   -7.040526
  H      4.080673   -2.465341   -7.289892
  C      4.671893   -0.409900   -7.515785
  H      5.531057   -0.649745   -8.136267
  C      4.392622    0.913849   -7.183973
  H      5.032925    1.717857   -7.535143
  C      3.288048    1.199148   -6.385551
  H      3.055003    2.219389   -6.094503
  H     -0.781471    1.572703   -7.645060
  H      2.044896   -3.200991   -6.281938
  H      0.830230   -2.044132   -5.705071
  H      2.170936   -2.488445   -4.655776

 Total Charge           Charge          ....   -1
 Multiplicity           Mult            ....    1
 Number of Electrons    NEL             ....  190
 Basis Dimension        Dim             .... 1457

ORBITAL ENERGIES
----------------

  NO   OCC          E(Eh)            E(eV)
   0   2.0000    -103.505675     -2816.5326
   1   2.0000     -90.848428     -2472.1114
   2   2.0000     -19.899684      -541.4979
   3   2.0000     -19.826893      -539.5172
   4   2.0000     -19.826410      -539.5040
   5   2.0000     -15.046575      -409.4381
   6   2.0000     -15.038131      -409.2084
   7   2.0000     -14.886292      -405.0766
   8   2.0000     -10.861356      -295.5525
   9   2.0000     -10.846867      -295.1582
  10   2.0000     -10.812145      -294.2134
  11   2.0000     -10.805868      -294.0426
  12   2.0000     -10.802567      -293.9528
  13   2.0000     -10.782872      -293.4169
  14   2.0000     -10.777438      -293.2690
  15   2.0000     -10.774907      -293.2001
  16   2.0000     -10.773098      -293.1509
  17   2.0000     -10.772633      -293.1383
  18   2.0000     -10.769971      -293.0658
  19   2.0000     -10.754388      -292.6418
  20   2.0000     -10.750942      -292.5480
  21   2.0000     -10.748793      -292.4895
  22   2.0000     -10.743876      -292.3557
  23   2.0000     -10.739053      -292.2245
  24   2.0000     -10.053572      -273.5716
  25   2.0000      -8.589728      -233.7384
  26   2.0000      -7.626706      -207.5332
  27   2.0000      -7.622304      -207.4134
  28   2.0000      -7.621970      -207.4043
  29   2.0000      -6.376357      -173.5095
  30   2.0000      -6.374097      -173.4480
  31   2.0000      -6.373150      -173.4222
  32   2.0000      -1.178442       -32.0670
  33   2.0000      -1.138980       -30.9932
  34   2.0000      -1.103552       -30.0292
  35   2.0000      -1.040751       -28.3203
  36   2.0000      -1.022661       -27.8280
  37   2.0000      -0.980540       -26.6818
  38   2.0000      -0.972920       -26.4745
  39   2.0000      -0.920710       -25.0538
  40   2.0000      -0.886188       -24.1144
  41   2.0000      -0.881643       -23.9907
  42   2.0000      -0.867172       -23.5969
  43   2.0000      -0.856174       -23.2977
  44   2.0000      -0.822949       -22.3936
  45   2.0000      -0.805923       -21.9303
  46   2.0000      -0.781010       -21.2524
  47   2.0000      -0.715335       -19.4653
  48   2.0000      -0.701886       -19.0993
  49   2.0000      -0.677045       -18.4233
  50   2.0000      -0.671646       -18.2764
  51   2.0000      -0.653745       -17.7893
  52   2.0000      -0.610790       -16.6204
  53   2.0000      -0.584382       -15.9018
  54   2.0000      -0.575152       -15.6507
  55   2.0000      -0.561708       -15.2848
  56   2.0000      -0.548960       -14.9380
  57   2.0000      -0.529826       -14.4173
  58   2.0000      -0.520231       -14.1562
  59   2.0000      -0.500397       -13.6165
  60   2.0000      -0.484120       -13.1736
  61   2.0000      -0.479140       -13.0381
  62   2.0000      -0.472599       -12.8601
  63   2.0000      -0.457120       -12.4389
  64   2.0000      -0.453481       -12.3399
  65   2.0000      -0.451908       -12.2970
  66   2.0000      -0.450522       -12.2593
  67   2.0000      -0.447932       -12.1888
  68   2.0000      -0.433681       -11.8011
  69   2.0000      -0.428479       -11.6595
  70   2.0000      -0.426694       -11.6109
  71   2.0000      -0.419701       -11.4206
  72   2.0000      -0.406125       -11.0512
  73   2.0000      -0.402132       -10.9426
  74   2.0000      -0.392321       -10.6756
  75   2.0000      -0.389968       -10.6116
  76   2.0000      -0.383336       -10.4311
  77   2.0000      -0.378440       -10.2979
  78   2.0000      -0.374655       -10.1949
  79   2.0000      -0.358094        -9.7442
  80   2.0000      -0.344509        -9.3746
  81   2.0000      -0.312130        -8.4935
  82   2.0000      -0.294220        -8.0061
  83   2.0000      -0.285168        -7.7598
  84   2.0000      -0.283178        -7.7057
  85   2.0000      -0.269671        -7.3381
  86   2.0000      -0.260029        -7.0758
  87   2.0000      -0.246465        -6.7067
  88   2.0000      -0.245590        -6.6828
  89   2.0000      -0.236935        -6.4473
  90   2.0000      -0.229760        -6.2521
  91   2.0000      -0.214680        -5.8418
  92   2.0000      -0.195701        -5.3253
  93   2.0000      -0.195186        -5.3113
  94   2.0000      -0.158142        -4.3033
  95   0.0000       0.063629         1.7314
  96   0.0000       0.070604         1.9212
  97   0.0000       0.074959         2.0397
  98   0.0000       0.085609         2.3296
  99   0.0000       0.089046         2.4231

MULLIKEN ATOMIC CHARGES
-----------------------
   0 C :   -0.243512
   1 C :    0.963221
   2 Cl:   -0.548334
   3 C :   -0.850204
   4 H :    0.392002
   5 C :    1.149767
   6 C :    1.342101
   7 C :    0.409019
   8 C :   -1.615834
   9 H :    0.057154
  10 S :    2.069851
  11 O :   -1.006789
  12 O :   -1.048160
  13 N :   -1.142340
  14 H :    0.127507
  15 N :   -0.817542
  16 C :    0.403363
  17 N :    0.054909
  18 C :   -1.050731
  19 H :   -0.082176
  20 H :    0.238627
  21 H :    0.396971
  22 H :    0.304798
  23 O :   -1.207798
  24 C :    1.532274
  25 C :    0.982624
  26 C :   -1.075286
  27 C :   -1.020453
  28 H :   -0.050432
  29 C :   -0.295321
  30 H :    0.750035
  31 C :   -0.612696
  32 H :    0.413106
  33 C :   -1.248791
  34 H :    0.332315
  35 H :    0.186202
  36 H :    0.111188
  37 H :    0.405270
  38 H :    0.294096
Sum of atomic charges:   -1.0000000

LOEWDIN ATOMIC CHARGES
----------------------
   0 C :   -0.287873
   1 C :   -0.781805
   2 Cl:    1.004060
   3 C :    0.121796
   4 H :   -0.205756
   5 C :   -0.234321
   6 C :   -0.089023
   7 C :   -0.653223
   8 C :    0.163075
   9 H :   -0.220749
  10 S :   -0.158097
  11 O :    0.009016
  12 O :   -0.037058
  13 N :    0.269869
  14 H :   -0.630632
  15 N :    0.594167
  16 C :   -0.241289
  17 N :    0.294643
  18 C :    0.603213
  19 H :   -0.287875
  20 H :   -0.115245
  21 H :   -0.160968
  22 H :   -0.156809
  23 O :    0.504805
  24 C :   -0.239534
  25 C :   -0.086342
  26 C :    0.587540
  27 C :    0.214761
  28 H :   -0.178124
  29 C :    0.190442
  30 H :   -0.184762
  31 C :    0.195767
  32 H :   -0.185085
  33 C :    0.217371
  34 H :   -0.163661
  35 H :   -0.156159
  36 H :   -0.169204
  37 H :   -0.177585
  38 H :   -0.169344

  Mayer bond orders larger than 0.100000
B(  0-C ,  1-C ) :   1.3924 B(  0-C ,  2-Cl) :   0.4968 B(  0-C ,  3-C ) :  -0.1385
B(  0-C ,  6-C ) :   0.2696 B(  0-C ,  8-C ) :   1.6339 B(  0-C , 10-S ) :   0.7977
B(  0-C , 11-O ) :   0.1867 B(  0-C , 12-O ) :   0.2087 B(  0-C , 13-N ) :   0.1638
B(  0-C , 17-N ) :   0.2528 B(  0-C , 25-C ) :  -0.1265 B(  0-C , 28-H ) :   0.6080
B(  0-C , 29-C ) :  -0.4088 B(  0-C , 33-C ) :  -0.1106 B(  0-C , 34-H ) :   0.1246
B(  1-C ,  2-Cl) :  -0.3926 B(  1-C ,  3-C ) :   1.1078 B(  1-C ,  5-C ) :   0.1443
B(  1-C , 17-N ) :  -0.2140 B(  1-C , 28-H ) :  -0.1175 B(  1-C , 30-H ) :  -0.1141
B(  1-C , 34-H ) :   0.2401 B(  2-Cl,  3-C ) :   0.2642 B(  3-C ,  4-H ) :   0.6954
B(  3-C ,  6-C ) :   0.5697 B(  3-C , 15-N ) :  -0.3206 B(  3-C , 25-C ) :  -0.2976
B(  3-C , 29-C ) :   0.3196 B(  3-C , 33-C ) :   0.2694 B(  3-C , 34-H ) :  -0.2372
B(  4-H ,  6-C ) :   0.1698 B(  5-C ,  6-C ) :   0.9879 B(  5-C ,  7-C ) :   0.4494
B(  5-C ,  8-C ) :  -0.8239 B(  5-C , 15-N ) :   0.3182 B(  5-C , 17-N ) :  -0.3358
B(  5-C , 19-H ) :  -0.1039 B(  5-C , 24-C ) :   0.1161 B(  5-C , 28-H ) :  -0.2670
B(  5-C , 31-C ) :   0.1643 B(  6-C ,  7-C ) :   0.3318 B(  6-C ,  8-C ) :  -0.5846
B(  6-C ,  9-H ) :  -0.3376 B(  6-C , 11-O ) :  -0.1404 B(  6-C , 13-N ) :  -0.1021
B(  6-C , 24-C ) :   0.1052 B(  6-C , 27-C ) :  -0.1479 B(  7-C ,  8-C ) :   0.3001
B(  7-C , 15-N ) :   0.1102 B(  7-C , 16-C ) :  -0.1418 B(  7-C , 17-N ) :   0.7899
B(  7-C , 23-O ) :   0.3889 B(  7-C , 24-C ) :  -0.5628 B(  7-C , 25-C ) :   0.3256
B(  7-C , 27-C ) :  -0.1436 B(  7-C , 33-C ) :   0.2281 B(  8-C ,  9-H ) :   1.6449
B(  8-C , 10-S ) :   0.1810 B(  8-C , 11-O ) :  -0.1684 B(  8-C , 17-N ) :   0.1715
B(  8-C , 24-C ) :  -0.1024 B(  8-C , 25-C ) :   0.2244 B(  8-C , 28-H ) :  -0.1266
B(  8-C , 31-C ) :  -0.2021 B(  8-C , 32-H ) :   0.2185 B( 10-S , 11-O ) :   1.2345
B( 10-S , 12-O ) :   1.1857 B( 10-S , 13-N ) :   1.3231 B( 12-O , 13-N ) :   0.1059
B( 13-N , 14-H ) :   0.9209 B( 15-N , 16-C ) :   0.7707 B( 15-N , 17-N ) :  -0.2363
B( 15-N , 18-C ) :   0.1041 B( 15-N , 19-H ) :   1.2118 B( 16-C , 17-N ) :   0.9517
B( 16-C , 18-C ) :   0.4141 B( 16-C , 20-H ) :   1.0524 B( 17-N , 18-C ) :  -0.1012
B( 17-N , 24-C ) :   0.3219 B( 17-N , 25-C ) :   0.2702 B( 17-N , 33-C ) :   0.4915
B( 18-C , 21-H ) :   0.9266 B( 18-C , 22-H ) :   1.0239 B( 18-C , 35-H ) :   1.0701
B( 23-O , 24-C ) :  -0.1113 B( 24-C , 25-C ) :   0.8441 B( 24-C , 26-C ) :   0.2532
B( 24-C , 29-C ) :  -0.1886 B( 24-C , 30-H ) :   0.1074 B( 24-C , 31-C ) :  -0.1265
B( 24-C , 34-H ) :   0.1016 B( 25-C , 26-C ) :   0.1046 B( 25-C , 27-C ) :   0.8628
B( 25-C , 29-C ) :   0.2682 B( 25-C , 30-H ) :  -0.2558 B( 25-C , 31-C ) :   0.1600
B( 25-C , 32-H ) :   0.2326 B( 25-C , 33-C ) :  -0.1389 B( 25-C , 34-H ) :  -0.1638
B( 26-C , 36-H ) :   1.1967 B( 26-C , 37-H ) :   0.8289 B( 26-C , 38-H ) :   1.0227
B( 27-C , 28-H ) :   1.6515 B( 27-C , 29-C ) :   1.1965 B( 27-C , 31-C ) :  -0.3684
B( 27-C , 33-C ) :   0.2000 B( 27-C , 34-H ) :   0.1432 B( 28-H , 29-C ) :  -0.1217
B( 29-C , 30-H ) :   0.3372 B( 29-C , 31-C ) :   1.1768 B( 29-C , 32-H ) :  -0.1661
B( 29-C , 33-C ) :   0.3103 B( 31-C , 32-H ) :   0.8241 B( 31-C , 33-C ) :   1.2334
B( 33-C , 34-H ) :   0.8682

MP2 TOTAL ENERGY:    -1865.117639277 Eh
Dispersion correction           -0.034164997
FINAL SINGLE POINT ENERGY     -1865.151804274074

DIPOLE MOMENT
-------------
                                X             Y             Z
Electronic contribution:    -17.52351       5.80696      28.28534
Nuclear contribution   :     19.00631      -3.97218     -36.24983
                        -----------------------------------------
Total Dipole Moment    :      1.48280       1.83478      -7.96450
                        -----------------------------------------
Magnitude (a.u.)       :      8.30652
Magnitude (Debye)      :     21.11350

Rotational constants in cm-1:     0.016467     0.003463     0.003067
Rotational constants in MHz :   493.656779   103.831350    91.943344

                             ****ORCA TERMINATED NORMALLY****
TOTAL RUN TIME: 0 days 0 hours 19 minutes 0 seconds 86 msec
