                         Program Version 5.0.3 -  RELEASE  -
|  1> !PAL8
|  2> !RI-DSD-PBEP86 D3BJ aug-cc-pVTZ aug-cc-pVTZ/C TightSCF
|  3> %maxcore 5000
|  4>
|  5> * xyz -1 1
|  6> C -1.2249286714  0.6228370278 -0.9237261105
|  7> C -2.4104239013  0.634556617 -1.6770217636
|  8> Cl -3.9787330842  0.3712191639 -0.9439005115
|  9> C -2.4534773281  0.8346745795 -3.0535864023
| 10> H -3.4013111005  0.8389197978 -3.5792869632
| 11> C -1.25767083  1.0206676849 -3.7279863998
| 12> Cl -1.276538854  1.2778087852 -5.4600254609
| 13> C -0.051399903  0.9982419295 -3.0532798306
| 14> H  0.8848265219  1.1336346681 -3.5824651855
| 15> C -0.0495782284  0.7963496303 -1.6694583898
| 16> Cl  1.55241797  0.7735658659 -0.9732699629
| 17> S -1.3255182354  0.3412722526  0.9429529039
| 18> O  0.0556362508  0.5199851894  1.3917544155
| 19> O -2.2759694849  1.4086343587  1.3132710695
| 20> N -1.8073527741 -1.1228960914  1.1423857524
| 21> H -2.8256673473 -1.1157294593  1.0753918393
| 22> *
| 23>
| 24>                          ****END OF INPUT****

CARTESIAN COORDINATES (ANGSTROEM)
---------------------------------
  C     -1.224929    0.622837   -0.923726
  C     -2.410424    0.634557   -1.677022
  Cl    -3.978733    0.371219   -0.943901
  C     -2.453477    0.834675   -3.053586
  H     -3.401311    0.838920   -3.579287
  C     -1.257671    1.020668   -3.727986
  Cl    -1.276539    1.277809   -5.460025
  C     -0.051400    0.998242   -3.053280
  H      0.884827    1.133635   -3.582465
  C     -0.049578    0.796350   -1.669458
  Cl     1.552418    0.773566   -0.973270
  S     -1.325518    0.341272    0.942953
  O      0.055636    0.519985    1.391754
  O     -2.275969    1.408634    1.313271
  N     -1.807353   -1.122896    1.142386
  H     -2.825667   -1.115729    1.075392

 Total Charge           Charge          ....   -1
 Multiplicity           Mult            ....    1
 Number of Electrons    NEL             ....  130
 Basis Dimension        Dim             ....  683

ORBITAL ENERGIES
----------------

  NO   OCC          E(Eh)            E(eV)
   0   2.0000    -103.533350     -2817.2857
   1   2.0000    -103.504871     -2816.5107
   2   2.0000    -103.497345     -2816.3059
   3   2.0000     -90.860967     -2472.4526
   4   2.0000     -19.836728      -539.7848
   5   2.0000     -19.835721      -539.7574
   6   2.0000     -14.897206      -405.3736
   7   2.0000     -10.818034      -294.3737
   8   2.0000     -10.814650      -294.2816
   9   2.0000     -10.813890      -294.2609
  10   2.0000     -10.763590      -292.8922
  11   2.0000     -10.761485      -292.8349
  12   2.0000     -10.760378      -292.8048
  13   2.0000     -10.081268      -274.3252
  14   2.0000     -10.052935      -273.5543
  15   2.0000     -10.045208      -273.3440
  16   2.0000      -8.601737      -234.0652
  17   2.0000      -7.654260      -208.2830
  18   2.0000      -7.649982      -208.1666
  19   2.0000      -7.649975      -208.1664
  20   2.0000      -7.626115      -207.5171
  21   2.0000      -7.621604      -207.3944
  22   2.0000      -7.621293      -207.3859
  23   2.0000      -7.618364      -207.3062
  24   2.0000      -7.613837      -207.1830
  25   2.0000      -7.613545      -207.1751
  26   2.0000      -6.388771      -173.8473
  27   2.0000      -6.385961      -173.7708
  28   2.0000      -6.384924      -173.7426
  29   2.0000      -1.152005       -31.3477
  30   2.0000      -1.034895       -28.1609
  31   2.0000      -1.010929       -27.5088
  32   2.0000      -0.960907       -26.1476
  33   2.0000      -0.947418       -25.7806
  34   2.0000      -0.893607       -24.3163
  35   2.0000      -0.880829       -23.9686
  36   2.0000      -0.810945       -22.0669
  37   2.0000      -0.805084       -21.9075
  38   2.0000      -0.655424       -17.8350
  39   2.0000      -0.645921       -17.5764
  40   2.0000      -0.590311       -16.0632
  41   2.0000      -0.522184       -14.2093
  42   2.0000      -0.519714       -14.1421
  43   2.0000      -0.474309       -12.9066
  44   2.0000      -0.457668       -12.4538
  45   2.0000      -0.440088       -11.9754
  46   2.0000      -0.438618       -11.9354
  47   2.0000      -0.424036       -11.5386
  48   2.0000      -0.400951       -10.9104
  49   2.0000      -0.395175       -10.7533
  50   2.0000      -0.377943       -10.2843
  51   2.0000      -0.366653        -9.9771
  52   2.0000      -0.348896        -9.4939
  53   2.0000      -0.330644        -8.9973
  54   2.0000      -0.320560        -8.7229
  55   2.0000      -0.301281        -8.1983
  56   2.0000      -0.293024        -7.9736
  57   2.0000      -0.288273        -7.8443
  58   2.0000      -0.270812        -7.3692
  59   2.0000      -0.243649        -6.6300
  60   2.0000      -0.236333        -6.4309
  61   2.0000      -0.216521        -5.8918
  62   2.0000      -0.209810        -5.7092
  63   2.0000      -0.204708        -5.5704
  64   2.0000      -0.171578        -4.6689
  65   0.0000       0.098255         2.6736
  66   0.0000       0.100680         2.7396
  67   0.0000       0.125538         3.4161
  68   0.0000       0.130925         3.5627
  69   0.0000       0.136563         3.7161

MULLIKEN ATOMIC CHARGES
-----------------------
   0 C :   -0.170050
   1 C :    0.677265
   2 Cl:   -0.454843
   3 C :   -0.965915
   4 H :    0.583687
   5 C :    0.862237
   6 Cl:   -0.482670
   7 C :   -0.916626
   8 H :    0.536505
   9 C :    0.476887
  10 Cl:   -0.381297
  11 S :    2.118195
  12 O :   -0.950848
  13 O :   -1.007881
  14 N :   -1.076046
  15 H :    0.151398
Sum of atomic charges:   -1.0000000

LOEWDIN ATOMIC CHARGES
----------------------
   0 C :   -0.336714
   1 C :   -0.809814
   2 Cl:    1.005899
   3 C :   -0.024718
   4 H :   -0.232454
   5 C :   -0.806170
   6 Cl:    0.936349
   7 C :   -0.030922
   8 H :   -0.236308
   9 C :   -0.804914
  10 Cl:    0.974353
  11 S :   -0.187182
  12 O :   -0.044789
  13 O :   -0.036263
  14 N :    0.273283
  15 H :   -0.639636

  Mayer bond orders larger than 0.100000
B(  0-C ,  1-C ) :   1.6021 B(  0-C ,  2-Cl) :   0.3170 B(  0-C ,  3-C ) :   0.2304
B(  0-C ,  7-C ) :   0.2748 B(  0-C ,  9-C ) :   1.3411 B(  0-C , 10-Cl) :   0.1287
B(  0-C , 11-S ) :   0.6668 B(  0-C , 13-O ) :   0.1509 B(  0-C , 14-N ) :   0.2454
B(  1-C ,  2-Cl) :   0.3737 B(  1-C ,  3-C ) :   0.8885 B(  1-C ,  7-C ) :  -0.1703
B(  1-C , 11-S ) :   0.1586 B(  1-C , 14-N ) :  -0.1703 B(  3-C ,  4-H ) :   0.5590
B(  3-C ,  5-C ) :   0.8258 B(  3-C ,  7-C ) :   0.4134 B(  3-C ,  9-C ) :  -0.2262
B(  5-C ,  6-Cl) :   0.6697 B(  5-C ,  7-C ) :   0.9224 B(  5-C ,  9-C ) :   0.1081
B(  6-Cl,  7-C ) :   0.1624 B(  7-C ,  8-H ) :   0.6730 B(  7-C ,  9-C ) :   0.8678
B(  9-C , 10-Cl) :   0.6305 B(  9-C , 12-O ) :   0.1116 B( 11-S , 12-O ) :   1.2115
B( 11-S , 13-O ) :   1.1849 B( 11-S , 14-N ) :   1.3231 B( 13-O , 14-N ) :   0.1045
B( 14-N , 15-H ) :   0.9076

MP2 TOTAL ENERGY:    -2212.691968964 Eh
Dispersion correction           -0.017192366
FINAL SINGLE POINT ENERGY     -2212.709161329519

DIPOLE MOMENT
-------------
                                X             Y             Z
Electronic contribution:      1.21929       2.19513      -6.36538
Nuclear contribution   :     -1.57724      -1.63713       2.59543
                        -----------------------------------------
Total Dipole Moment    :     -0.35795       0.55800      -3.76995
                        -----------------------------------------
Magnitude (a.u.)       :      3.82779
Magnitude (Debye)      :      9.72948

Rotational constants in cm-1:     0.023271     0.012619     0.008609
Rotational constants in MHz :   697.655664   378.320359   258.085078

                             ****ORCA TERMINATED NORMALLY****
TOTAL RUN TIME: 0 days 0 hours 2 minutes 38 seconds 936 msec
