                         Program Version 5.0.3 -  RELEASE  -
|  1> !PAL8
|  2> !RI-DSD-PBEP86 D3BJ aug-cc-pVTZ aug-cc-pVTZ/C TightSCF
|  3> %maxcore 3000
|  4>
|  5>
|  6> * xyz -1 1
|  7> C -1.5174639952  0.6933572044 -0.8254533941
|  8> C -2.6183495636  0.8640314033 -1.6813143842
|  9> C -4.0335413872  1.0827007241 -1.1790773632
| 10> C -2.4569808152  0.8864734011 -3.0635999159
| 11> H -3.3191365572  1.0433422371 -3.7045880697
| 12> C -1.2035599993  0.7173344171 -3.6569128732
| 13> C -0.1090186812  0.5326707717 -2.7978775456
| 14> S  1.5198379135  0.2915088181 -3.4720543531
| 15> C -0.2668031641  0.5298099357 -1.4135610887
| 16> H  0.5923937618  0.4197438306 -0.7557099851
| 17> S -1.5796355633  0.6176135547  1.0278794833
| 18> O -0.162592962  0.8422472699  1.3551922476
| 19> O -2.5195856456  1.7160958947  1.3362460805
| 20> N -2.0288187578 -0.8149818004  1.4356925376
| 21> H -3.0492751836 -0.8143909709  1.4359583921
| 22> N -1.0758379079  0.8142344459 -5.0516024827
| 23> C  0.1141800825  0.2451223178 -5.6616634014
| 24> N  1.3095459451  0.8150142097 -5.0619721414
| 25> O  2.4641403969  1.2114146151 -2.8627498946
| 26> O  1.805641243 -1.1320155239 -3.5442508617
| 27> H -1.9365421423  0.6106560218 -5.5460852366
| 28> F -4.9342481852  0.8468767685 -2.1756809084
| 29> F -4.2547175764  2.3421370455 -0.7897404532
| 30> F -4.3810114788  0.2616898366 -0.1851367361
| 31> H  0.1866869827 -0.8436556701 -5.5333751631
| 32> H  0.1067180187  0.4779633364 -6.7288764174
| 33> H  1.2943962214  1.8359869053 -5.0706150713
| 34> *
| 35>
| 36>                          ****END OF INPUT****

CARTESIAN COORDINATES (ANGSTROEM)
---------------------------------
  C     -1.517464    0.693357   -0.825453
  C     -2.618350    0.864031   -1.681314
  C     -4.033541    1.082701   -1.179077
  C     -2.456981    0.886473   -3.063600
  H     -3.319137    1.043342   -3.704588
  C     -1.203560    0.717334   -3.656913
  C     -0.109019    0.532671   -2.797878
  S      1.519838    0.291509   -3.472054
  C     -0.266803    0.529810   -1.413561
  H      0.592394    0.419744   -0.755710
  S     -1.579636    0.617614    1.027879
  O     -0.162593    0.842247    1.355192
  O     -2.519586    1.716096    1.336246
  N     -2.028819   -0.814982    1.435693
  H     -3.049275   -0.814391    1.435958
  N     -1.075838    0.814234   -5.051602
  C      0.114180    0.245122   -5.661663
  N      1.309546    0.815014   -5.061972
  O      2.464140    1.211415   -2.862750
  O      1.805641   -1.132016   -3.544251
  H     -1.936542    0.610656   -5.546085
  F     -4.934248    0.846877   -2.175681
  F     -4.254718    2.342137   -0.789740
  F     -4.381011    0.261690   -0.185137
  H      0.186687   -0.843656   -5.533375
  H      0.106718    0.477963   -6.728876
  H      1.294396    1.835987   -5.070615

 Total Charge           Charge          ....   -1
 Multiplicity           Mult            ....    1
 Number of Electrons    NEL             ....  168
 Basis Dimension        Dim             .... 1089

ORBITAL ENERGIES
----------------

  NO   OCC          E(Eh)            E(eV)
   0   2.0000     -90.955518     -2475.0255
   1   2.0000     -90.859144     -2472.4030
   2   2.0000     -25.630508      -697.4416
   3   2.0000     -25.625160      -697.2960
   4   2.0000     -25.622465      -697.2227
   5   2.0000     -19.934788      -542.4532
   6   2.0000     -19.932690      -542.3961
   7   2.0000     -19.837122      -539.7955
   8   2.0000     -19.836671      -539.7833
   9   2.0000     -15.061967      -409.8569
  10   2.0000     -15.053721      -409.6326
  11   2.0000     -14.895344      -405.3229
  12   2.0000     -11.002174      -299.3844
  13   2.0000     -10.849585      -295.2322
  14   2.0000     -10.825258      -294.5702
  15   2.0000     -10.789820      -293.6059
  16   2.0000     -10.786709      -293.5213
  17   2.0000     -10.768898      -293.0366
  18   2.0000     -10.762872      -292.8726
  19   2.0000     -10.758594      -292.7562
  20   2.0000      -8.699159      -236.7162
  21   2.0000      -8.600442      -234.0299
  22   2.0000      -6.485821      -176.4882
  23   2.0000      -6.483186      -176.4165
  24   2.0000      -6.482345      -176.3936
  25   2.0000      -6.387271      -173.8065
  26   2.0000      -6.384762      -173.7382
  27   2.0000      -6.383754      -173.7108
  28   2.0000      -1.476545       -40.1788
  29   2.0000      -1.383266       -37.6406
  30   2.0000      -1.380317       -37.5603
  31   2.0000      -1.255354       -34.1599
  32   2.0000      -1.150701       -31.3122
  33   2.0000      -1.138016       -30.9670
  34   2.0000      -1.110487       -30.2179
  35   2.0000      -1.034626       -28.1536
  36   2.0000      -1.030365       -28.0377
  37   2.0000      -0.974979       -26.5305
  38   2.0000      -0.895098       -24.3569
  39   2.0000      -0.890094       -24.2207
  40   2.0000      -0.850646       -23.1472
  41   2.0000      -0.793887       -21.6028
  42   2.0000      -0.768912       -20.9232
  43   2.0000      -0.727490       -19.7960
  44   2.0000      -0.693391       -18.8681
  45   2.0000      -0.666426       -18.1344
  46   2.0000      -0.636898       -17.3309
  47   2.0000      -0.636009       -17.3067
  48   2.0000      -0.623495       -16.9662
  49   2.0000      -0.606801       -16.5119
  50   2.0000      -0.582305       -15.8453
  51   2.0000      -0.565227       -15.3806
  52   2.0000      -0.552327       -15.0296
  53   2.0000      -0.526355       -14.3228
  54   2.0000      -0.522647       -14.2220
  55   2.0000      -0.518438       -14.1074
  56   2.0000      -0.505213       -13.7475
  57   2.0000      -0.487170       -13.2566
  58   2.0000      -0.485287       -13.2053
  59   2.0000      -0.481421       -13.1001
  60   2.0000      -0.476339       -12.9618
  61   2.0000      -0.471137       -12.8203
  62   2.0000      -0.467021       -12.7083
  63   2.0000      -0.458330       -12.4718
  64   2.0000      -0.453871       -12.3505
  65   2.0000      -0.439425       -11.9574
  66   2.0000      -0.413523       -11.2525
  67   2.0000      -0.406933       -11.0732
  68   2.0000      -0.402122       -10.9423
  69   2.0000      -0.386532       -10.5181
  70   2.0000      -0.363939        -9.9033
  71   2.0000      -0.360658        -9.8140
  72   2.0000      -0.346189        -9.4203
  73   2.0000      -0.337676        -9.1886
  74   2.0000      -0.327696        -8.9171
  75   2.0000      -0.311055        -8.4642
  76   2.0000      -0.302056        -8.2194
  77   2.0000      -0.271986        -7.4011
  78   2.0000      -0.256927        -6.9913
  79   2.0000      -0.248841        -6.7713
  80   2.0000      -0.240413        -6.5420
  81   2.0000      -0.210919        -5.7394
  82   2.0000      -0.205774        -5.5994
  83   2.0000      -0.167565        -4.5597
  84   0.0000       0.067584         1.8391
  85   0.0000       0.086932         2.3655
  86   0.0000       0.095273         2.5925
  87   0.0000       0.104284         2.8377
  88   0.0000       0.114464         3.1147

MULLIKEN ATOMIC CHARGES
-----------------------
   0 C :    0.046592
   1 C :    0.674982
   2 C :    1.197868
   3 C :   -0.708909
   4 H :    0.396461
   5 C :    0.256290
   6 C :    1.157679
   7 S :    2.035350
   8 C :   -1.557488
   9 H :    0.377104
  10 S :    2.058746
  11 O :   -1.016541
  12 O :   -1.051940
  13 N :   -1.110153
  14 H :    0.159970
  15 N :   -0.469828
  16 C :   -0.344257
  17 N :   -0.593700
  18 O :   -1.006940
  19 O :   -1.009848
  20 H :   -0.049735
  21 F :   -0.402406
  22 F :   -0.407304
  23 F :   -0.404984
  24 H :    0.321428
  25 H :    0.449573
  26 H :    0.001989
Sum of atomic charges:   -1.0000000

LOEWDIN ATOMIC CHARGES
----------------------
   0 C :   -0.185021
   1 C :   -0.169002
   2 C :   -1.528129
   3 C :    0.204001
   4 H :   -0.205161
   5 C :   -0.255964
   6 C :   -0.201707
   7 S :    0.148760
   8 C :    0.119417
   9 H :   -0.229051
  10 S :   -0.122071
  11 O :    0.019463
  12 O :   -0.008504
  13 N :    0.290299
  14 H :   -0.623949
  15 N :    0.559592
  16 C :    0.007428
  17 N :    0.415567
  18 O :    0.068249
  19 O :    0.066932
  20 H :   -0.289393
  21 F :    0.504210
  22 F :    0.523448
  23 F :    0.541075
  24 H :   -0.161370
  25 H :   -0.144380
  26 H :   -0.344740

  Mayer bond orders larger than 0.100000
B(  0-C ,  1-C ) :   0.9312 B(  0-C ,  6-C ) :   0.3562 B(  0-C ,  7-S ) :  -0.1153
B(  0-C ,  8-C ) :   1.2808 B(  0-C ,  9-H ) :   0.1280 B(  0-C , 10-S ) :   0.7810
B(  0-C , 11-O ) :   0.2531 B(  0-C , 12-O ) :  -0.1324 B(  0-C , 13-N ) :   0.2749
B(  0-C , 23-F ) :   0.2176 B(  1-C ,  2-C ) :   0.8550 B(  1-C ,  3-C ) :   0.6315
B(  1-C ,  5-C ) :   0.3126 B(  1-C ,  6-C ) :  -0.1821 B(  1-C ,  8-C ) :  -0.2506
B(  1-C , 12-O ) :   0.1442 B(  1-C , 13-N ) :  -0.2220 B(  1-C , 21-F ) :   0.3929
B(  1-C , 23-F ) :  -0.1140 B(  2-C , 21-F ) :   0.6595 B(  2-C , 22-F ) :   0.7371
B(  2-C , 23-F ) :   0.7346 B(  3-C ,  4-H ) :   0.7287 B(  3-C ,  5-C ) :   0.4401
B(  3-C ,  6-C ) :   0.1898 B(  3-C , 21-F ) :  -0.1460 B(  3-C , 23-F ) :  -0.1059
B(  5-C ,  6-C ) :   1.0264 B(  5-C ,  7-S ) :   0.3176 B(  5-C , 15-N ) :   0.6084
B(  5-C , 17-N ) :   0.1897 B(  5-C , 18-O ) :  -0.1117 B(  6-C ,  7-S ) :   0.7391
B(  6-C ,  8-C ) :   0.6026 B(  6-C , 15-N ) :  -0.3378 B(  6-C , 18-O ) :   0.3184
B(  6-C , 19-O ) :  -0.2673 B(  7-S , 17-N ) :   0.8888 B(  7-S , 18-O ) :   0.9668
B(  7-S , 19-O ) :   1.3036 B(  8-C ,  9-H ) :   0.7021 B(  8-C , 10-S ) :   0.1149
B(  8-C , 19-O ) :   0.1758 B(  8-C , 23-F ) :   0.1232 B( 10-S , 11-O ) :   1.0849
B( 10-S , 12-O ) :   1.1629 B( 10-S , 13-N ) :   1.3622 B( 13-N , 14-H ) :   0.8778
B( 15-N , 16-C ) :   0.8602 B( 15-N , 20-H ) :   1.1716 B( 16-C , 17-N ) :   0.8109
B( 16-C , 24-H ) :   0.9543 B( 16-C , 25-H ) :   0.8301 B( 17-N , 19-O ) :   0.1066
B( 17-N , 26-H ) :   1.0193

MP2 TOTAL ENERGY:    -1868.320099013 Eh
Dispersion correction           -0.024198971
FINAL SINGLE POINT ENERGY     -1868.344297983525

DIPOLE MOMENT
-------------
                                X             Y             Z
Electronic contribution:    -12.89786       3.61038       8.59089
Nuclear contribution   :     11.57627      -3.12792     -14.62948
                        -----------------------------------------
Total Dipole Moment    :     -1.32159       0.48246      -6.03860
                        -----------------------------------------
Magnitude (a.u.)       :      6.20032
Magnitude (Debye)      :     15.75997

Rotational constants in cm-1:     0.016367     0.006797     0.005256
Rotational constants in MHz :   490.682281   203.756878   157.583514

                             ****ORCA TERMINATED NORMALLY****
TOTAL RUN TIME: 0 days 0 hours 7 minutes 52 seconds 352 msec
