                         Program Version 5.0.3 -  RELEASE  -
|  1> !PAL8
|  2> !RI-DSD-PBEP86 D3BJ aug-cc-pVTZ aug-cc-pVTZ/C TightSCF
|  3> %maxcore 3000
|  4>
|  5>
|  6> * xyz -1 1
|  7> C -1.4516438748  0.5905037287 -0.8427362456
|  8> C -2.5415125752  0.4980270905 -1.7156122661
|  9> Cl -4.1784492334  0.5309734769 -1.1168459512
| 10> C -2.3832637101  0.3875268562 -3.091210955
| 11> H -3.2445926977  0.3314853993 -3.7483109686
| 12> C -1.107524236  0.3672263255 -3.659548353
| 13> C -0.0146111458  0.4433086245 -2.7760164916
| 14> S  1.5939166311  0.2370527545 -3.4431285889
| 15> C -0.1755899753  0.5530925012 -1.398228444
| 16> H  0.6768178044  0.6172855038 -0.726237384
| 17> S -1.6025120046  0.7874273127  0.9918897283
| 18> O -2.3893339663 -0.4106398495  1.3516701773
| 19> O -0.1842601501  0.7940962853  1.3838002986
| 20> N -2.275735074  2.1631919284  1.265967618
| 21> H -3.2844098817  2.0082240897  1.227287805
| 22> N -1.020083838  0.3272278565 -5.0589977735
| 23> C  0.0932990373  0.6077191693 -5.6175295921
| 24> N  1.2700562863  0.9328920242 -4.9603498212
| 25> O  2.5963806058  1.0769540556 -2.8126761048
| 26> O  1.888218688 -1.1737849019 -3.6456268757
| 27> H  0.1478409527  0.6550042256 -6.7040980868
| 28> H  2.1064773574  1.0899875427 -5.514786725
| 29> *
| 30>
| 31>                          ****END OF INPUT****

CARTESIAN COORDINATES (ANGSTROEM)
---------------------------------
  C     -1.451644    0.590504   -0.842736
  C     -2.541513    0.498027   -1.715612
  Cl    -4.178449    0.530973   -1.116846
  C     -2.383264    0.387527   -3.091211
  H     -3.244593    0.331485   -3.748311
  C     -1.107524    0.367226   -3.659548
  C     -0.014611    0.443309   -2.776016
  S      1.593917    0.237053   -3.443129
  C     -0.175590    0.553093   -1.398228
  H      0.676818    0.617286   -0.726237
  S     -1.602512    0.787427    0.991890
  O     -2.389334   -0.410640    1.351670
  O     -0.184260    0.794096    1.383800
  N     -2.275735    2.163192    1.265968
  H     -3.284410    2.008224    1.227288
  N     -1.020084    0.327228   -5.058998
  C      0.093299    0.607719   -5.617530
  N      1.270056    0.932892   -4.960350
  O      2.596381    1.076954   -2.812676
  O      1.888219   -1.173785   -3.645627
  H      0.147841    0.655004   -6.704098
  H      2.106477    1.089988   -5.514787

 Total Charge           Charge          ....   -1
 Multiplicity           Mult            ....    1
 Number of Electrons    NEL             ....  150
 Basis Dimension        Dim             ....  909

ORBITAL ENERGIES
----------------

  NO   OCC          E(Eh)            E(eV)
   0   2.0000    -103.513022     -2816.7325
   1   2.0000     -90.969174     -2475.3971
   2   2.0000     -90.861174     -2472.4582
   3   2.0000     -19.944424      -542.7154
   4   2.0000     -19.940678      -542.6134
   5   2.0000     -19.839694      -539.8655
   6   2.0000     -19.839036      -539.8476
   7   2.0000     -15.087294      -410.5461
   8   2.0000     -15.032236      -409.0479
   9   2.0000     -14.898689      -405.4139
  10   2.0000     -10.868851      -295.7565
  11   2.0000     -10.820970      -294.4536
  12   2.0000     -10.814061      -294.2656
  13   2.0000     -10.791828      -293.6606
  14   2.0000     -10.765792      -292.9521
  15   2.0000     -10.763367      -292.8861
  16   2.0000     -10.760526      -292.8088
  17   2.0000     -10.060966      -273.7728
  18   2.0000      -8.712620      -237.0825
  19   2.0000      -8.602445      -234.0844
  20   2.0000      -7.634134      -207.7353
  21   2.0000      -7.629667      -207.6138
  22   2.0000      -7.629338      -207.6048
  23   2.0000      -6.500009      -176.8742
  24   2.0000      -6.496159      -176.7695
  25   2.0000      -6.495474      -176.7508
  26   2.0000      -6.389231      -173.8598
  27   2.0000      -6.386768      -173.7928
  28   2.0000      -6.385763      -173.7654
  29   2.0000      -1.265203       -34.4279
  30   2.0000      -1.152611       -31.3641
  31   2.0000      -1.144659       -31.1477
  32   2.0000      -1.124087       -30.5880
  33   2.0000      -1.036080       -28.1932
  34   2.0000      -1.034350       -28.1461
  35   2.0000      -0.990236       -26.9457
  36   2.0000      -0.937277       -25.5046
  37   2.0000      -0.894963       -24.3532
  38   2.0000      -0.853437       -23.2232
  39   2.0000      -0.848894       -23.0996
  40   2.0000      -0.751925       -20.4609
  41   2.0000      -0.733611       -19.9626
  42   2.0000      -0.678609       -18.4659
  43   2.0000      -0.633815       -17.2470
  44   2.0000      -0.609720       -16.5913
  45   2.0000      -0.601265       -16.3613
  46   2.0000      -0.577819       -15.7233
  47   2.0000      -0.532044       -14.4777
  48   2.0000      -0.519333       -14.1318
  49   2.0000      -0.510993       -13.9048
  50   2.0000      -0.498514       -13.5652
  51   2.0000      -0.482733       -13.1358
  52   2.0000      -0.464966       -12.6524
  53   2.0000      -0.454001       -12.3540
  54   2.0000      -0.441899       -12.0247
  55   2.0000      -0.420350       -11.4383
  56   2.0000      -0.411412       -11.1951
  57   2.0000      -0.405282       -11.0283
  58   2.0000      -0.392764       -10.6876
  59   2.0000      -0.383915       -10.4469
  60   2.0000      -0.370885       -10.0923
  61   2.0000      -0.348966        -9.4958
  62   2.0000      -0.336689        -9.1618
  63   2.0000      -0.336324        -9.1518
  64   2.0000      -0.321636        -8.7522
  65   2.0000      -0.316672        -8.6171
  66   2.0000      -0.300639        -8.1808
  67   2.0000      -0.295238        -8.0338
  68   2.0000      -0.272760        -7.4222
  69   2.0000      -0.258694        -7.0394
  70   2.0000      -0.243278        -6.6199
  71   2.0000      -0.229445        -6.2435
  72   2.0000      -0.214277        -5.8308
  73   2.0000      -0.207431        -5.6445
  74   2.0000      -0.172714        -4.6998
  75   0.0000       0.070156         1.9090
  76   0.0000       0.091887         2.5004
  77   0.0000       0.099134         2.6976
  78   0.0000       0.101414         2.7596
  79   0.0000       0.120382         3.2758

MULLIKEN ATOMIC CHARGES
-----------------------
   0 C :   -0.007069
   1 C :    0.550342
   2 Cl:   -0.492241
   3 C :   -0.334228
   4 H :    0.523617
   5 C :    0.973040
   6 C :    0.528833
   7 S :    1.896460
   8 C :   -1.273606
   9 H :    0.392966
  10 S :    2.133270
  11 O :   -1.033426
  12 O :   -1.005120
  13 N :   -1.109256
  14 H :    0.133186
  15 N :   -0.532356
  16 C :   -0.798299
  17 N :   -0.246780
  18 O :   -0.924550
  19 O :   -0.996561
  20 H :    0.616862
  21 H :    0.004918
Sum of atomic charges:   -1.0000000

LOEWDIN ATOMIC CHARGES
----------------------
   0 C :   -0.287143
   1 C :   -0.780229
   2 Cl:    1.011419
   3 C :    0.098572
   4 H :   -0.202214
   5 C :   -0.365545
   6 C :   -0.243331
   7 S :    0.155932
   8 C :    0.112055
   9 H :   -0.232348
  10 S :   -0.152480
  11 O :   -0.029689
  12 O :    0.015501
  13 N :    0.276942
  14 H :   -0.622646
  15 N :    0.366817
  16 C :   -0.138153
  17 N :    0.406164
  18 O :    0.064363
  19 O :    0.055767
  20 H :   -0.181103
  21 H :   -0.328647

  Mayer bond orders larger than 0.100000
B(  0-C ,  1-C ) :   1.5527 B(  0-C ,  2-Cl) :   0.5239 B(  0-C ,  3-C ) :  -0.1906
B(  0-C ,  6-C ) :   0.2498 B(  0-C ,  8-C ) :   1.3121 B(  0-C ,  9-H ) :   0.1346
B(  0-C , 10-S ) :   0.7317 B(  0-C , 12-O ) :   0.1297 B(  0-C , 13-N ) :   0.2508
B(  1-C ,  2-Cl) :   0.1562 B(  1-C ,  3-C ) :   1.1526 B(  3-C ,  4-H ) :   0.5980
B(  3-C ,  5-C ) :   0.8609 B(  3-C ,  8-C ) :  -0.1708 B(  3-C , 15-N ) :  -0.1827
B(  5-C ,  6-C ) :   1.2183 B(  5-C ,  7-S ) :   0.1335 B(  5-C , 15-N ) :  -0.1290
B(  5-C , 16-C ) :  -0.2994 B(  6-C ,  7-S ) :   0.8138 B(  6-C ,  8-C ) :   0.3557
B(  6-C , 15-N ) :   0.1417 B(  6-C , 18-O ) :   0.3227 B(  7-S , 17-N ) :   0.8729
B(  7-S , 18-O ) :   1.2237 B(  7-S , 19-O ) :   1.3248 B(  8-C ,  9-H ) :   0.6707
B( 10-S , 11-O ) :   1.1711 B( 10-S , 12-O ) :   1.1915 B( 10-S , 13-N ) :   1.3123
B( 11-O , 13-N ) :   0.1085 B( 13-N , 14-H ) :   0.9132 B( 15-N , 16-C ) :   1.9250
B( 16-C , 17-N ) :   1.0369 B( 16-C , 20-H ) :   0.4967 B( 17-N , 19-O ) :   0.1402
B( 17-N , 21-H ) :   1.0437

MP2 TOTAL ENERGY:    -1989.678199449 Eh
Dispersion correction           -0.022498527
FINAL SINGLE POINT ENERGY     -1989.700697976261

DIPOLE MOMENT
-------------
                                X             Y             Z
Electronic contribution:     -4.61510      -1.85895       1.27756
Nuclear contribution   :      5.00202       1.97457      -6.81352
                        -----------------------------------------
Total Dipole Moment    :      0.38692       0.11562      -5.53596
                        -----------------------------------------
Magnitude (a.u.)       :      5.55067
Magnitude (Debye)      :     14.10868

Rotational constants in cm-1:     0.022210     0.008011     0.006355
Rotational constants in MHz :   665.842136   240.171198   190.512983

                             ****ORCA TERMINATED NORMALLY****
TOTAL RUN TIME: 0 days 0 hours 4 minutes 53 seconds 648 msec
