                         Program Version 5.0.3 -  RELEASE  -
|  1> !PAL8
|  2> !RI-DSD-PBEP86 D3BJ aug-cc-pVTZ aug-cc-pVTZ/C TightSCF
|  3> %maxcore 3000
|  4>
|  5>
|  6> * xyz -1 1
|  7> C -1.4533457461  0.6534095848 -0.798414376
|  8> C -2.5542057617  0.6745164252 -1.6579354055
|  9> Cl -4.1848633093  0.7183149848 -1.0379910571
| 10> C -2.4217084296  0.6739401941 -3.0403495398
| 11> H -3.3093866874  0.7197662447 -3.6654074031
| 12> C -1.1569744499  0.6314844291 -3.634456745
| 13> C -0.0477738073  0.6015089625 -2.7743683689
| 14> S  1.5813287951  0.452177604 -3.4401601158
| 15> C -0.1954361301  0.6208393017 -1.3873577195
| 16> H  0.6720002281  0.609697213 -0.7310966691
| 17> S -1.5725105385  0.6815131471  1.0464329528
| 18> O -2.3847927132 -0.5278224859  1.3055751757
| 19> O -0.1485385051  0.6163147565  1.4135926221
| 20> N -2.209213164  2.0365495989  1.4739947586
| 21> H -3.2213197872  1.9043645487  1.4428462385
| 22> N -1.0509686617  0.6978234492 -5.0293834282
| 23> C  0.2090021445  0.3442045847 -5.6525968777
| 24> N  1.2577479315  1.1010151227 -4.9720047335
| 25> O  2.5317922545  1.3428187949 -2.7961726718
| 26> O  1.9342282726 -0.9607244365 -3.5805682572
| 27> H  0.183318029  0.6689785283 -6.6954075229
| 28> H  2.1345504428  1.1223281268 -5.4924652803
| 29> H -1.859334598  0.3189560654 -5.5072472694
| 30> H  0.4090471909 -0.7402287444 -5.6117573071
| 31> *
| 32>
| 33>                          ****END OF INPUT****

CARTESIAN COORDINATES (ANGSTROEM)
---------------------------------
  C     -1.453346    0.653410   -0.798414
  C     -2.554206    0.674516   -1.657935
  Cl    -4.184863    0.718315   -1.037991
  C     -2.421708    0.673940   -3.040350
  H     -3.309387    0.719766   -3.665407
  C     -1.156974    0.631484   -3.634457
  C     -0.047774    0.601509   -2.774368
  S      1.581329    0.452178   -3.440160
  C     -0.195436    0.620839   -1.387358
  H      0.672000    0.609697   -0.731097
  S     -1.572511    0.681513    1.046433
  O     -2.384793   -0.527822    1.305575
  O     -0.148539    0.616315    1.413593
  N     -2.209213    2.036550    1.473995
  H     -3.221320    1.904365    1.442846
  N     -1.050969    0.697823   -5.029383
  C      0.209002    0.344205   -5.652597
  N      1.257748    1.101015   -4.972005
  O      2.531792    1.342819   -2.796173
  O      1.934228   -0.960724   -3.580568
  H      0.183318    0.668979   -6.695408
  H      2.134550    1.122328   -5.492465
  H     -1.859335    0.318956   -5.507247
  H      0.409047   -0.740229   -5.611757

 Total Charge           Charge          ....   -1
 Multiplicity           Mult            ....    1
 Number of Electrons    NEL             ....  152
 Basis Dimension        Dim             ....  955

ORBITAL ENERGIES
----------------

  NO   OCC          E(Eh)            E(eV)
   0   2.0000    -103.511189     -2816.6827
   1   2.0000     -90.950518     -2474.8894
   2   2.0000     -90.854530     -2472.2774
   3   2.0000     -19.929719      -542.3152
   4   2.0000     -19.926896      -542.2384
   5   2.0000     -19.832882      -539.6802
   6   2.0000     -19.832275      -539.6636
   7   2.0000     -15.058539      -409.7637
   8   2.0000     -15.048505      -409.4906
   9   2.0000     -14.891666      -405.2228
  10   2.0000     -10.847515      -295.1759
  11   2.0000     -10.821995      -294.4815
  12   2.0000     -10.818825      -294.3952
  13   2.0000     -10.780540      -293.3534
  14   2.0000     -10.759597      -292.7835
  15   2.0000     -10.759307      -292.7756
  16   2.0000     -10.747587      -292.4567
  17   2.0000     -10.059110      -273.7223
  18   2.0000      -8.694690      -236.5945
  19   2.0000      -8.595756      -233.9024
  20   2.0000      -7.632257      -207.6843
  21   2.0000      -7.627827      -207.5637
  22   2.0000      -7.627501      -207.5548
  23   2.0000      -6.481395      -176.3677
  24   2.0000      -6.478483      -176.2885
  25   2.0000      -6.477797      -176.2698
  26   2.0000      -6.382493      -173.6765
  27   2.0000      -6.380134      -173.6123
  28   2.0000      -6.379081      -173.5836
  29   2.0000      -1.248531       -33.9743
  30   2.0000      -1.145251       -31.1639
  31   2.0000      -1.129152       -30.7258
  32   2.0000      -1.104459       -30.0538
  33   2.0000      -1.028875       -27.9971
  34   2.0000      -1.027007       -27.9463
  35   2.0000      -0.984992       -26.8030
  36   2.0000      -0.930712       -25.3260
  37   2.0000      -0.887782       -24.1578
  38   2.0000      -0.846806       -23.0428
  39   2.0000      -0.839773       -22.8514
  40   2.0000      -0.763120       -20.7655
  41   2.0000      -0.723701       -19.6929
  42   2.0000      -0.688013       -18.7218
  43   2.0000      -0.631181       -17.1753
  44   2.0000      -0.596902       -16.2425
  45   2.0000      -0.590650       -16.0724
  46   2.0000      -0.563089       -15.3224
  47   2.0000      -0.545295       -14.8382
  48   2.0000      -0.531732       -14.4692
  49   2.0000      -0.508330       -13.8324
  50   2.0000      -0.498492       -13.5647
  51   2.0000      -0.477505       -12.9936
  52   2.0000      -0.473046       -12.8722
  53   2.0000      -0.464239       -12.6326
  54   2.0000      -0.460572       -12.5328
  55   2.0000      -0.435466       -11.8496
  56   2.0000      -0.422401       -11.4941
  57   2.0000      -0.405518       -11.0347
  58   2.0000      -0.398566       -10.8455
  59   2.0000      -0.383354       -10.4316
  60   2.0000      -0.376046       -10.2327
  61   2.0000      -0.360557        -9.8112
  62   2.0000      -0.347711        -9.4617
  63   2.0000      -0.343445        -9.3456
  64   2.0000      -0.323672        -8.8076
  65   2.0000      -0.317502        -8.6397
  66   2.0000      -0.305456        -8.3119
  67   2.0000      -0.296942        -8.0802
  68   2.0000      -0.289372        -7.8742
  69   2.0000      -0.266120        -7.2415
  70   2.0000      -0.251864        -6.8536
  71   2.0000      -0.236057        -6.4234
  72   2.0000      -0.225606        -6.1390
  73   2.0000      -0.201268        -5.4768
  74   2.0000      -0.200803        -5.4641
  75   2.0000      -0.164211        -4.4684
  76   0.0000       0.067894         1.8475
  77   0.0000       0.083259         2.2656
  78   0.0000       0.097222         2.6455
  79   0.0000       0.099385         2.7044
  80   0.0000       0.115810         3.1514

MULLIKEN ATOMIC CHARGES
-----------------------
   0 C :   -0.068122
   1 C :    0.611721
   2 Cl:   -0.512565
   3 C :   -0.571614
   4 H :    0.492059
   5 C :    0.722613
   6 C :    0.883500
   7 S :    2.000508
   8 C :   -1.347411
   9 H :    0.389638
  10 S :    2.106533
  11 O :   -1.039264
  12 O :   -1.006122
  13 N :   -1.116175
  14 H :    0.130971
  15 N :   -0.465238
  16 C :   -0.409773
  17 N :   -0.477038
  18 O :   -0.995570
  19 O :   -1.019670
  20 H :    0.455674
  21 H :   -0.026838
  22 H :   -0.056474
  23 H :    0.318659
Sum of atomic charges:   -1.0000000

LOEWDIN ATOMIC CHARGES
----------------------
   0 C :   -0.294464
   1 C :   -0.783894
   2 Cl:    1.009709
   3 C :    0.108935
   4 H :   -0.205258
   5 C :   -0.272279
   6 C :   -0.219050
   7 S :    0.146689
   8 C :    0.106636
   9 H :   -0.228945
  10 S :   -0.154348
  11 O :   -0.033745
  12 O :    0.013061
  13 N :    0.273311
  14 H :   -0.626152
  15 N :    0.554539
  16 C :    0.005337
  17 N :    0.422550
  18 O :    0.063084
  19 O :    0.052579
  20 H :   -0.146192
  21 H :   -0.344026
  22 H :   -0.288787
  23 H :   -0.159290

  Mayer bond orders larger than 0.100000
B(  0-C ,  1-C ) :   1.5824 B(  0-C ,  2-Cl) :   0.4773 B(  0-C ,  3-C ) :  -0.1524
B(  0-C ,  6-C ) :   0.2715 B(  0-C ,  8-C ) :   1.2509 B(  0-C ,  9-H ) :   0.1236
B(  0-C , 10-S ) :   0.7289 B(  0-C , 12-O ) :   0.1460 B(  0-C , 13-N ) :   0.2358
B(  1-C ,  2-Cl) :   0.1091 B(  1-C ,  3-C ) :   1.1846 B(  1-C ,  6-C ) :  -0.1297
B(  1-C ,  8-C ) :   0.1077 B(  1-C , 10-S ) :   0.1253 B(  1-C , 13-N ) :  -0.1118
B(  3-C ,  4-H ) :   0.6095 B(  3-C ,  5-C ) :   0.6295 B(  3-C ,  6-C ) :   0.1603
B(  3-C ,  8-C ) :  -0.1180 B(  3-C , 15-N ) :  -0.1112 B(  4-H ,  6-C ) :   0.1122
B(  5-C ,  6-C ) :   0.8389 B(  5-C ,  7-S ) :   0.1834 B(  5-C , 15-N ) :   0.6164
B(  5-C , 17-N ) :  -0.1451 B(  6-C ,  7-S ) :   0.8580 B(  6-C ,  8-C ) :   0.3222
B(  6-C , 15-N ) :  -0.2761 B(  6-C , 17-N ) :   0.1314 B(  6-C , 18-O ) :   0.4054
B(  7-S , 17-N ) :   0.9716 B(  7-S , 18-O ) :   0.9534 B(  7-S , 19-O ) :   1.2932
B(  8-C ,  9-H ) :   0.6604 B( 10-S , 11-O ) :   1.1918 B( 10-S , 12-O ) :   1.1847
B( 10-S , 13-N ) :   1.3128 B( 11-O , 13-N ) :   0.1075 B( 13-N , 14-H ) :   0.9147
B( 15-N , 16-C ) :   0.9135 B( 15-N , 17-N ) :  -0.1021 B( 15-N , 22-H ) :   1.2119
B( 16-C , 17-N ) :   0.8845 B( 16-C , 20-H ) :   0.8136 B( 16-C , 23-H ) :   0.9787
B( 17-N , 21-H ) :   0.9830

MP2 TOTAL ENERGY:    -1990.876507479 Eh
Dispersion correction           -0.023311143
FINAL SINGLE POINT ENERGY     -1990.899818621862

DIPOLE MOMENT
-------------
                                X             Y             Z
Electronic contribution:     -5.72321      -0.49495       7.18492
Nuclear contribution   :      5.22355       0.20264     -13.63662
                        -----------------------------------------
Total Dipole Moment    :     -0.49966      -0.29231      -6.45170
                        -----------------------------------------
Magnitude (a.u.)       :      6.47761
Magnitude (Debye)      :     16.46479

Rotational constants in cm-1:     0.021884     0.007880     0.006240
Rotational constants in MHz :   656.054725   236.239910   187.070702

                             ****ORCA TERMINATED NORMALLY****
TOTAL RUN TIME: 0 days 0 hours 5 minutes 25 seconds 864 msec
