                         Program Version 5.0.3 -  RELEASE  -
|  1> !PAL8
|  2> !RI-DSD-PBEP86 D3BJ aug-cc-pVTZ aug-cc-pVTZ/C TightSCF
|  3> %maxcore 3000
|  4>
|  5>
|  6> * xyz -1 1
|  7> C -1.6079318277  1.0573011726 -0.8970921244
|  8> C -2.7375422001  0.5483655325 -1.5606651465
|  9> C -4.0986042189  0.4180161015 -0.9032611478
| 10> C -2.669833898  0.1571240095 -2.8983470221
| 11> H -3.5535662616 -0.2288498019 -3.3967129187
| 12> C -1.4730931343  0.2486890029 -3.6049333811
| 13> C -0.3399786339  0.7581805427 -2.9551809924
| 14> C  0.9287423616  0.9118653623 -3.7145876796
| 15> C -0.4218633567  1.155656549 -1.6211566836
| 16> S -1.533776451  1.5498785819  0.8871520935
| 17> O -0.3022745507  2.3558937889  0.9067891242
| 18> O -2.8093027797  2.2799492315  1.0554555462
| 19> N -1.3647228244  0.2526675849  1.734562564
| 20> H -2.3038622428 -0.1119398618  1.8981931606
| 21> N -1.3973776903 -0.1155322193 -4.9621591249
| 22> C -0.0959002074 -0.6056889544 -5.3754121693
| 23> N  0.8833173808  0.3955881094 -4.9987631602
| 24> H -2.1392587616 -0.7565425127 -5.2302685997
| 25> F -4.90332865 -0.4112261102 -1.6294290586
| 26> F -4.7573727348  1.5795967971 -0.8353580971
| 27> F -4.0541647784 -0.1179829357  0.3201247634
| 28> H  1.7911599912  0.3551289228 -5.4486709563
| 29> C -0.0590804444 -0.811264281 -6.892457183
| 30> C -1.0830446501 -1.8192198646 -7.3510072161
| 31> C -0.8362837933 -3.1914398415 -7.2321297247
| 32> H  0.1224953901 -3.5290483859 -6.8434121945
| 33> C -1.8010616936 -4.1250862867 -7.6038966828
| 34> H -1.5927200404 -5.1864679443 -7.503259762
| 35> C -3.0319845316 -3.6979603767 -8.1015769574
| 36> H -3.7860257047 -4.4245906632 -8.3898014007
| 37> C -3.2897095386 -2.3338730968 -8.2241756201
| 38> H -4.246700578 -1.9920057835 -8.6080603567
| 39> C -2.3210941779 -1.4024986349 -7.8508611101
| 40> H -2.5251106083 -0.3378582549 -7.9401543398
| 41> H  0.1302265785 -1.5701897071 -4.8753901866
| 42> H  0.9481397996 -1.1489318455 -7.168248959
| 43> H -0.234239286  0.1626850364 -7.3609450878
| 44> O  1.9273532013  1.4714148152 -3.296686983
| 45> H  0.4546005459  1.5670142216 -1.1284652257
| 46> *
| 47>
| 48>                          ****END OF INPUT****

CARTESIAN COORDINATES (ANGSTROEM)
---------------------------------
  C     -1.607932    1.057301   -0.897092
  C     -2.737542    0.548366   -1.560665
  C     -4.098604    0.418016   -0.903261
  C     -2.669834    0.157124   -2.898347
  H     -3.553566   -0.228850   -3.396713
  C     -1.473093    0.248689   -3.604933
  C     -0.339979    0.758181   -2.955181
  C      0.928742    0.911865   -3.714588
  C     -0.421863    1.155657   -1.621157
  S     -1.533776    1.549879    0.887152
  O     -0.302275    2.355894    0.906789
  O     -2.809303    2.279949    1.055456
  N     -1.364723    0.252668    1.734563
  H     -2.303862   -0.111940    1.898193
  N     -1.397378   -0.115532   -4.962159
  C     -0.095900   -0.605689   -5.375412
  N      0.883317    0.395588   -4.998763
  H     -2.139259   -0.756543   -5.230269
  F     -4.903329   -0.411226   -1.629429
  F     -4.757373    1.579597   -0.835358
  F     -4.054165   -0.117983    0.320125
  H      1.791160    0.355129   -5.448671
  C     -0.059080   -0.811264   -6.892457
  C     -1.083045   -1.819220   -7.351007
  C     -0.836284   -3.191440   -7.232130
  H      0.122495   -3.529048   -6.843412
  C     -1.801062   -4.125086   -7.603897
  H     -1.592720   -5.186468   -7.503260
  C     -3.031985   -3.697960   -8.101577
  H     -3.786026   -4.424591   -8.389801
  C     -3.289710   -2.333873   -8.224176
  H     -4.246701   -1.992006   -8.608060
  C     -2.321094   -1.402499   -7.850861
  H     -2.525111   -0.337858   -7.940154
  H      0.130227   -1.570190   -4.875390
  H      0.948140   -1.148932   -7.168249
  H     -0.234239    0.162685   -7.360945
  O      1.927353    1.471415   -3.296687
  H      0.454601    1.567014   -1.128465

 Total Charge           Charge          ....   -1
 Multiplicity           Mult            ....    1
 Number of Electrons    NEL             ....  198
 Basis Dimension        Dim             .... 1499

ORBITAL ENERGIES
----------------

  NO   OCC          E(Eh)            E(eV)
   0   2.0000     -90.849401     -2472.1379
   1   2.0000     -25.621268      -697.1901
   2   2.0000     -25.616111      -697.0498
   3   2.0000     -25.613434      -696.9770
   4   2.0000     -19.904181      -541.6203
   5   2.0000     -19.827574      -539.5357
   6   2.0000     -19.827176      -539.5249
   7   2.0000     -15.041830      -409.3090
   8   2.0000     -15.038549      -409.2197
   9   2.0000     -14.886437      -405.0805
  10   2.0000     -10.992681      -299.1261
  11   2.0000     -10.864306      -295.6328
  12   2.0000     -10.849828      -295.2388
  13   2.0000     -10.803696      -293.9835
  14   2.0000     -10.803440      -293.9766
  15   2.0000     -10.797563      -293.8166
  16   2.0000     -10.796957      -293.8001
  17   2.0000     -10.795083      -293.7491
  18   2.0000     -10.794529      -293.7341
  19   2.0000     -10.793076      -293.6945
  20   2.0000     -10.789789      -293.6051
  21   2.0000     -10.775260      -293.2097
  22   2.0000     -10.754803      -292.6531
  23   2.0000     -10.754666      -292.6493
  24   2.0000     -10.745876      -292.4102
  25   2.0000     -10.743415      -292.3432
  26   2.0000      -8.590778      -233.7670
  27   2.0000      -6.377465      -173.5397
  28   2.0000      -6.375137      -173.4763
  29   2.0000      -6.374159      -173.4497
  30   2.0000      -1.467175       -39.9238
  31   2.0000      -1.373926       -37.3864
  32   2.0000      -1.370985       -37.3064
  33   2.0000      -1.178580       -32.0708
  34   2.0000      -1.140730       -31.0408
  35   2.0000      -1.103312       -30.0227
  36   2.0000      -1.024658       -27.8824
  37   2.0000      -1.017414       -27.6853
  38   2.0000      -1.009934       -27.4817
  39   2.0000      -0.962001       -26.1774
  40   2.0000      -0.918119       -24.9833
  41   2.0000      -0.882997       -24.0276
  42   2.0000      -0.878254       -23.8985
  43   2.0000      -0.874457       -23.7952
  44   2.0000      -0.844487       -22.9797
  45   2.0000      -0.810374       -22.0514
  46   2.0000      -0.778796       -21.1921
  47   2.0000      -0.727753       -19.8032
  48   2.0000      -0.710008       -19.3203
  49   2.0000      -0.708360       -19.2755
  50   2.0000      -0.675623       -18.3846
  51   2.0000      -0.672342       -18.2953
  52   2.0000      -0.637903       -17.3582
  53   2.0000      -0.627448       -17.0737
  54   2.0000      -0.625419       -17.0185
  55   2.0000      -0.610051       -16.6003
  56   2.0000      -0.591134       -16.0856
  57   2.0000      -0.580534       -15.7971
  58   2.0000      -0.569212       -15.4891
  59   2.0000      -0.557588       -15.1727
  60   2.0000      -0.532024       -14.4771
  61   2.0000      -0.526463       -14.3258
  62   2.0000      -0.517170       -14.0729
  63   2.0000      -0.515128       -14.0174
  64   2.0000      -0.507000       -13.7962
  65   2.0000      -0.499072       -13.5804
  66   2.0000      -0.485816       -13.2197
  67   2.0000      -0.481117       -13.0919
  68   2.0000      -0.475564       -12.9407
  69   2.0000      -0.468690       -12.7537
  70   2.0000      -0.468061       -12.7366
  71   2.0000      -0.460194       -12.5225
  72   2.0000      -0.453813       -12.3489
  73   2.0000      -0.449135       -12.2216
  74   2.0000      -0.444949       -12.1077
  75   2.0000      -0.439885       -11.9699
  76   2.0000      -0.431507       -11.7419
  77   2.0000      -0.425250       -11.5716
  78   2.0000      -0.417478       -11.3601
  79   2.0000      -0.407441       -11.0870
  80   2.0000      -0.398450       -10.8424
  81   2.0000      -0.393983       -10.7208
  82   2.0000      -0.391208       -10.6453
  83   2.0000      -0.390583       -10.6283
  84   2.0000      -0.381313       -10.3760
  85   2.0000      -0.356972        -9.7137
  86   2.0000      -0.316999        -8.6260
  87   2.0000      -0.292923        -7.9708
  88   2.0000      -0.289006        -7.8643
  89   2.0000      -0.275730        -7.5030
  90   2.0000      -0.271345        -7.3837
  91   2.0000      -0.263367        -7.1666
  92   2.0000      -0.261018        -7.1027
  93   2.0000      -0.247063        -6.7229
  94   2.0000      -0.233331        -6.3493
  95   2.0000      -0.229728        -6.2512
  96   2.0000      -0.200036        -5.4433
  97   2.0000      -0.196887        -5.3576
  98   2.0000      -0.157237        -4.2786
  99   0.0000       0.057843         1.5740
 100   0.0000       0.067749         1.8435
 101   0.0000       0.070249         1.9116
 102   0.0000       0.082679         2.2498
 103   0.0000       0.086013         2.3405

MULLIKEN ATOMIC CHARGES
-----------------------
   0 C :    0.030882
   1 C :    0.776704
   2 C :    1.208255
   3 C :   -0.846941
   4 H :    0.212564
   5 C :    0.851133
   6 C :    1.187474
   7 C :   -0.096984
   8 C :   -1.148594
   9 S :    2.056989
  10 O :   -1.034163
  11 O :   -1.058617
  12 N :   -1.121668
  13 H :    0.161624
  14 N :   -0.746983
  15 C :    0.684264
  16 N :   -0.197291
  17 H :    0.047365
  18 F :   -0.409552
  19 F :   -0.419518
  20 F :   -0.408466
  21 H :    0.027491
  22 C :   -0.617720
  23 C :    1.593436
  24 C :   -1.013125
  25 H :    0.116486
  26 C :   -0.652912
  27 H :    0.563757
  28 C :   -0.195541
  29 H :    0.424305
  30 C :   -0.634866
  31 H :    0.629768
  32 C :   -0.915256
  33 H :    0.088372
  34 H :    0.345771
  35 H :    0.335141
  36 H :    0.135613
  37 O :   -0.992620
  38 H :    0.033424
Sum of atomic charges:   -1.0000000

LOEWDIN ATOMIC CHARGES
----------------------
   0 C :   -0.180528
   1 C :   -0.167709
   2 C :   -1.528213
   3 C :    0.218382
   4 H :   -0.204867
   5 C :   -0.205478
   6 C :   -0.086590
   7 C :   -0.654478
   8 C :    0.172183
   9 S :   -0.125770
  10 O :    0.014189
  11 O :   -0.012027
  12 N :    0.286396
  13 H :   -0.627671
  14 N :    0.599880
  15 C :   -0.236059
  16 N :    0.579403
  17 H :   -0.303473
  18 F :    0.501833
  19 F :    0.521156
  20 F :    0.537631
  21 H :   -0.276401
  22 C :    0.295901
  23 C :   -0.119119
  24 C :    0.218024
  25 H :   -0.167055
  26 C :    0.196868
  27 H :   -0.181079
  28 C :    0.189014
  29 H :   -0.184095
  30 C :    0.198781
  31 H :   -0.180291
  32 C :    0.214125
  33 H :   -0.165409
  34 H :   -0.103051
  35 H :   -0.136779
  36 H :   -0.138206
  37 O :    0.461364
  38 H :   -0.220780

  Mayer bond orders larger than 0.100000
B(  0-C ,  1-C ) :   1.0257 B(  0-C ,  6-C ) :   0.8001 B(  0-C ,  8-C ) :   1.4024
B(  0-C ,  9-S ) :   0.7253 B(  0-C , 10-O ) :   0.2953 B(  0-C , 11-O ) :  -0.1054
B(  0-C , 12-N ) :   0.2582 B(  0-C , 19-F ) :   0.1367 B(  0-C , 20-F ) :   0.2181
B(  0-C , 24-C ) :  -0.2411 B(  0-C , 25-H ) :   0.2954 B(  0-C , 26-C ) :   0.2740
B(  0-C , 27-H ) :  -0.2992 B(  0-C , 30-C ) :   0.4351 B(  0-C , 31-H ) :  -0.4566
B(  0-C , 37-O ) :  -0.2070 B(  1-C ,  2-C ) :   0.8287 B(  1-C ,  3-C ) :   0.3211
B(  1-C ,  4-H ) :  -0.2029 B(  1-C ,  5-C ) :   0.5753 B(  1-C ,  6-C ) :  -0.1822
B(  1-C ,  8-C ) :  -0.1575 B(  1-C ,  9-S ) :  -0.1101 B(  1-C , 11-O ) :   0.2245
B(  1-C , 12-N ) :  -0.1608 B(  1-C , 18-F ) :   0.4165 B(  1-C , 19-F ) :   0.1806
B(  1-C , 20-F ) :  -0.1818 B(  1-C , 24-C ) :  -0.1734 B(  1-C , 26-C ) :   0.2245
B(  2-C ,  6-C ) :   0.1091 B(  2-C , 18-F ) :   0.6140 B(  2-C , 19-F ) :   0.7015
B(  2-C , 20-F ) :   0.7423 B(  3-C ,  4-H ) :   1.1446 B(  3-C ,  5-C ) :  -0.5517
B(  3-C ,  6-C ) :   0.4728 B(  3-C ,  9-S ) :  -0.1138 B(  3-C , 14-N ) :  -0.3161
B(  3-C , 16-N ) :   0.1301 B(  3-C , 18-F ) :  -0.2217 B(  3-C , 25-H ) :  -0.1829
B(  3-C , 27-H ) :   0.1329 B(  3-C , 30-C ) :  -0.2399 B(  3-C , 32-C ) :   0.1001
B(  5-C ,  6-C ) :   0.1511 B(  5-C ,  7-C ) :   0.5983 B(  5-C ,  8-C ) :  -0.3235
B(  5-C , 14-N ) :   0.5938 B(  5-C , 16-N ) :   0.1895 B(  5-C , 26-C ) :  -0.1734
B(  5-C , 29-H ) :   0.1787 B(  5-C , 30-C ) :  -0.1233 B(  5-C , 32-C ) :   0.1723
B(  6-C ,  7-C ) :  -0.6450 B(  6-C , 14-N ) :   0.1424 B(  6-C , 15-C ) :   0.1645
B(  6-C , 16-N ) :  -0.5082 B(  6-C , 24-C ) :   0.2149 B(  6-C , 25-H ) :  -0.1516
B(  6-C , 26-C ) :  -0.2148 B(  6-C , 29-H ) :  -0.1006 B(  6-C , 30-C ) :  -0.1462
B(  6-C , 31-H ) :   0.3795 B(  6-C , 33-H ) :  -0.1553 B(  6-C , 37-O ) :   0.7722
B(  6-C , 38-H ) :  -0.2891 B(  7-C ,  8-C ) :   0.2167 B(  7-C , 15-C ) :  -0.1851
B(  7-C , 16-N ) :   1.0752 B(  7-C , 37-O ) :   0.6910 B(  8-C ,  9-S ) :   0.2729
B(  8-C , 20-F ) :   0.1429 B(  8-C , 25-H ) :   0.1389 B(  8-C , 32-C ) :  -0.2504
B(  8-C , 33-H ) :   0.1518 B(  8-C , 37-O ) :  -0.2700 B(  8-C , 38-H ) :   1.5948
B(  9-S , 10-O ) :   1.0869 B(  9-S , 11-O ) :   1.1433 B(  9-S , 12-N ) :   1.3625
B( 12-N , 13-H ) :   0.8742 B( 14-N , 15-C ) :   0.6429 B( 14-N , 17-H ) :   1.0130
B( 14-N , 22-C ) :   0.2008 B( 15-C , 16-N ) :   0.5299 B( 15-C , 22-C ) :   0.7091
B( 15-C , 23-C ) :   0.1069 B( 15-C , 34-H ) :   0.8880 B( 16-N , 21-H ) :   1.0423
B( 16-N , 37-O ) :  -0.1424 B( 22-C , 23-C ) :   0.3806 B( 22-C , 24-C ) :   0.1763
B( 22-C , 32-C ) :   0.3314 B( 22-C , 35-H ) :   0.9637 B( 22-C , 36-H ) :   1.1687
B( 23-C , 24-C ) :   0.5043 B( 23-C , 25-H ) :  -0.1548 B( 23-C , 30-C ) :   0.1455
B( 23-C , 32-C ) :   0.4710 B( 23-C , 33-H ) :  -0.1681 B( 23-C , 38-H ) :   0.1308
B( 24-C , 25-H ) :   1.2427 B( 24-C , 26-C ) :   1.4114 B( 24-C , 32-C ) :  -0.3590
B( 25-H , 32-C ) :   0.1139 B( 26-C , 27-H ) :   0.6062 B( 26-C , 28-C ) :   1.1477
B( 26-C , 29-H ) :  -0.1286 B( 26-C , 30-C ) :   0.1388 B( 26-C , 38-H ) :  -0.1308
B( 28-C , 29-H ) :   0.7876 B( 28-C , 30-C ) :   1.1442 B( 28-C , 32-C ) :  -0.1512
B( 29-H , 30-C ) :  -0.1223 B( 30-C , 31-H ) :   0.5192 B( 30-C , 32-C ) :   1.3315
B( 31-H , 32-C ) :  -0.1132 B( 32-C , 33-H ) :   1.4885 B( 32-C , 38-H ) :   0.1407

MP2 TOTAL ENERGY:    -1703.308170173 Eh
Dispersion correction           -0.031830097
FINAL SINGLE POINT ENERGY     -1703.340000270024

DIPOLE MOMENT
-------------
                                X             Y             Z
Electronic contribution:    -14.41395      13.07212      29.41607
Nuclear contribution   :     13.34593     -17.17494     -37.53105
                        -----------------------------------------
Total Dipole Moment    :     -1.06802      -4.10282      -8.11498
                        -----------------------------------------
Magnitude (a.u.)       :      9.15570
Magnitude (Debye)      :     23.27193

Rotational constants in cm-1:     0.011026     0.003368     0.002765
Rotational constants in MHz :   330.560666   100.974386    82.902108

                             ****ORCA TERMINATED NORMALLY****
TOTAL RUN TIME: 0 days 0 hours 16 minutes 4 seconds 765 msec
