                         Program Version 5.0.3 -  RELEASE  -
|  1> !PAL8
|  2> !RI-DSD-PBEP86 D3BJ aug-cc-pVTZ aug-cc-pVTZ/C TightSCF
|  3> %maxcore 3000
|  4>
|  5>
|  6> * xyz -1 1
|  7> C -1.5601655599  0.9382322567 -0.9061406603
|  8> C -2.6711142849  0.7531765245 -1.7334199787
|  9> Cl -4.2914871615  0.7508302768 -1.0878954545
| 10> C -2.5555748013  0.5452293893 -3.1055489436
| 11> H -3.4476531138  0.3992821211 -3.7084327236
| 12> C -1.2921235883  0.522020391 -3.6895617161
| 13> C -0.1578654109  0.7155939308 -2.8849945324
| 14> C  1.1852737192  0.7215366402 -3.5095999557
| 15> C -0.3076859423  0.9206485505 -1.5108942681
| 16> S -1.6662011919  1.1645713858  0.9243435568
| 17> O -0.2451299043  1.3350196793  1.2675961601
| 18> O -2.5268665233  2.3639168953  1.0290948919
| 19> N -2.244988899 -0.1461950897  1.5377061064
| 20> H -3.2617564392 -0.0566734039  1.5059113952
| 21> N -1.1327792794  0.3527903481 -5.0774751585
| 22> C  0.0875141017 -0.2985102028 -5.4825192102
| 23> N  1.1918421645  0.3842754173 -4.8587642724
| 24> H -1.9541555835 -0.0212546607 -5.5390600511
| 25> O  2.2210031193  1.0199282194 -2.9431296549
| 26> H  0.5694219522  1.0734967702 -0.8880662829
| 27> H  2.1174178103  0.2391912553 -5.2437203055
| 28> C  0.0912613791 -1.8093738392 -5.1123520832
| 29> H  0.1881140581 -0.2303433004 -6.5710521366
| 30> H  0.0000643428 -1.9552036157 -4.0355533434
| 31> Cl  1.6183918553 -2.5668253168 -5.6383757265
| 32> Cl -1.2973478191 -2.6305716222 -5.883635652
| 33> *
| 34>
| 35>                          ****END OF INPUT****

CARTESIAN COORDINATES (ANGSTROEM)
---------------------------------
  C     -1.560166    0.938232   -0.906141
  C     -2.671114    0.753177   -1.733420
  Cl    -4.291487    0.750830   -1.087895
  C     -2.555575    0.545229   -3.105549
  H     -3.447653    0.399282   -3.708433
  C     -1.292124    0.522020   -3.689562
  C     -0.157865    0.715594   -2.884995
  C      1.185274    0.721537   -3.509600
  C     -0.307686    0.920649   -1.510894
  S     -1.666201    1.164571    0.924344
  O     -0.245130    1.335020    1.267596
  O     -2.526867    2.363917    1.029095
  N     -2.244989   -0.146195    1.537706
  H     -3.261756   -0.056673    1.505911
  N     -1.132779    0.352790   -5.077475
  C      0.087514   -0.298510   -5.482519
  N      1.191842    0.384275   -4.858764
  H     -1.954156   -0.021255   -5.539060
  O      2.221003    1.019928   -2.943130
  H      0.569422    1.073497   -0.888066
  H      2.117418    0.239191   -5.243720
  C      0.091261   -1.809374   -5.112352
  H      0.188114   -0.230343   -6.571052
  H      0.000064   -1.955204   -4.035553
  Cl     1.618392   -2.566825   -5.638376
  Cl    -1.297348   -2.630572   -5.883636

 Total Charge           Charge          ....   -1
 Multiplicity           Mult            ....    1
 Number of Electrons    NEL             ....  174
 Basis Dimension        Dim             .... 1051

ORBITAL ENERGIES
----------------

  NO   OCC          E(Eh)            E(eV)
   0   2.0000    -103.563103     -2818.0953
   1   2.0000    -103.561833     -2818.0607
   2   2.0000    -103.511206     -2816.6831
   3   2.0000     -90.853572     -2472.2514
   4   2.0000     -19.909429      -541.7631
   5   2.0000     -19.831812      -539.6510
   6   2.0000     -19.831477      -539.6419
   7   2.0000     -15.053123      -409.6163
   8   2.0000     -15.052275      -409.5932
   9   2.0000     -14.891095      -405.2073
  10   2.0000     -10.906595      -296.7836
  11   2.0000     -10.874195      -295.9019
  12   2.0000     -10.871584      -295.8309
  13   2.0000     -10.819314      -294.4085
  14   2.0000     -10.814126      -294.2673
  15   2.0000     -10.758773      -292.7611
  16   2.0000     -10.757920      -292.7379
  17   2.0000     -10.751865      -292.5731
  18   2.0000     -10.745873      -292.4101
  19   2.0000     -10.111445      -275.1464
  20   2.0000     -10.110128      -275.1106
  21   2.0000     -10.059088      -273.7217
  22   2.0000      -8.594816      -233.8768
  23   2.0000      -7.684541      -209.1070
  24   2.0000      -7.683267      -209.0723
  25   2.0000      -7.679968      -208.9825
  26   2.0000      -7.679893      -208.9805
  27   2.0000      -7.678619      -208.9458
  28   2.0000      -7.678554      -208.9441
  29   2.0000      -7.632229      -207.6835
  30   2.0000      -7.627824      -207.5637
  31   2.0000      -7.627472      -207.5541
  32   2.0000      -6.381530      -173.6503
  33   2.0000      -6.379190      -173.5866
  34   2.0000      -6.378205      -173.5598
  35   2.0000      -1.185982       -32.2722
  36   2.0000      -1.144243       -31.1364
  37   2.0000      -1.121891       -30.5282
  38   2.0000      -1.035275       -28.1713
  39   2.0000      -1.027905       -27.9707
  40   2.0000      -1.023979       -27.8639
  41   2.0000      -0.984062       -26.7777
  42   2.0000      -0.943386       -25.6708
  43   2.0000      -0.926398       -25.2086
  44   2.0000      -0.886799       -24.1310
  45   2.0000      -0.850077       -23.1318
  46   2.0000      -0.833893       -22.6914
  47   2.0000      -0.795959       -21.6592
  48   2.0000      -0.719249       -19.5717
  49   2.0000      -0.703983       -19.1564
  50   2.0000      -0.680296       -18.5118
  51   2.0000      -0.621431       -16.9100
  52   2.0000      -0.605206       -16.4685
  53   2.0000      -0.584044       -15.8927
  54   2.0000      -0.561827       -15.2881
  55   2.0000      -0.537459       -14.6250
  56   2.0000      -0.536898       -14.6097
  57   2.0000      -0.508406       -13.8344
  58   2.0000      -0.490950       -13.3594
  59   2.0000      -0.486016       -13.2252
  60   2.0000      -0.470729       -12.8092
  61   2.0000      -0.463873       -12.6226
  62   2.0000      -0.459573       -12.5056
  63   2.0000      -0.442742       -12.0476
  64   2.0000      -0.441606       -12.0167
  65   2.0000      -0.431137       -11.7318
  66   2.0000      -0.412499       -11.2247
  67   2.0000      -0.400340       -10.8938
  68   2.0000      -0.395357       -10.7582
  69   2.0000      -0.376776       -10.2526
  70   2.0000      -0.369309       -10.0494
  71   2.0000      -0.366005        -9.9595
  72   2.0000      -0.361066        -9.8251
  73   2.0000      -0.349963        -9.5230
  74   2.0000      -0.341064        -9.2808
  75   2.0000      -0.317375        -8.6362
  76   2.0000      -0.300580        -8.1792
  77   2.0000      -0.294094        -8.0027
  78   2.0000      -0.289647        -7.8817
  79   2.0000      -0.281869        -7.6700
  80   2.0000      -0.265055        -7.2125
  81   2.0000      -0.250846        -6.8259
  82   2.0000      -0.235522        -6.4089
  83   2.0000      -0.222432        -6.0527
  84   2.0000      -0.202917        -5.5217
  85   2.0000      -0.200112        -5.4453
  86   2.0000      -0.163863        -4.4589
  87   0.0000       0.073025         1.9871
  88   0.0000       0.086508         2.3540
  89   0.0000       0.097031         2.6403
  90   0.0000       0.101585         2.7643
  91   0.0000       0.112860         3.0711

MULLIKEN ATOMIC CHARGES
-----------------------
   0 C :   -0.224396
   1 C :    0.679404
   2 Cl:   -0.514302
   3 C :   -0.862577
   4 H :    0.379471
   5 C :    1.509698
   6 C :    1.129195
   7 C :    0.276467
   8 C :   -1.136382
   9 S :    2.096852
  10 O :   -1.015398
  11 O :   -1.040609
  12 N :   -1.115784
  13 H :    0.128027
  14 N :   -0.775485
  15 C :    0.354254
  16 N :   -0.263313
  17 H :   -0.071895
  18 O :   -0.973300
  19 H :    0.100792
  20 H :    0.103171
  21 C :    0.262133
  22 H :    0.483725
  23 H :    0.296441
  24 Cl:   -0.407109
  25 Cl:   -0.399078
Sum of atomic charges:   -1.0000000

LOEWDIN ATOMIC CHARGES
----------------------
   0 C :   -0.286492
   1 C :   -0.781978
   2 Cl:    1.011805
   3 C :    0.119525
   4 H :   -0.203872
   5 C :   -0.252065
   6 C :   -0.109443
   7 C :   -0.670706
   8 C :    0.161828
   9 S :   -0.157035
  10 O :    0.010859
  11 O :   -0.035400
  12 N :    0.271524
  13 H :   -0.627825
  14 N :    0.561046
  15 C :   -0.406786
  16 N :    0.542726
  17 H :   -0.330094
  18 O :    0.464695
  19 H :   -0.219067
  20 H :   -0.299942
  21 C :   -1.143321
  22 H :   -0.155288
  23 H :   -0.302878
  24 Cl:    0.916983
  25 Cl:    0.921200

  Mayer bond orders larger than 0.100000
B(  0-C ,  1-C ) :   1.6444 B(  0-C ,  2-Cl) :   0.6522 B(  0-C ,  5-C ) :  -0.2587
B(  0-C ,  6-C ) :   0.3562 B(  0-C ,  7-C ) :   0.1006 B(  0-C ,  8-C ) :   1.2778
B(  0-C ,  9-S ) :   0.7234 B(  0-C , 10-O ) :   0.1105 B(  0-C , 12-N ) :   0.2555
B(  1-C ,  3-C ) :   1.2547 B(  1-C ,  5-C ) :   0.1659 B(  1-C , 12-N ) :  -0.1819
B(  2-Cl,  5-C ) :  -0.1736 B(  3-C ,  4-H ) :   0.7436 B(  3-C ,  5-C ) :  -0.2525
B(  3-C ,  6-C ) :   0.2677 B(  3-C ,  8-C ) :  -0.1114 B(  3-C , 14-N ) :  -0.2629
B(  3-C , 15-C ) :   0.1587 B(  4-H ,  6-C ) :   0.1121 B(  5-C ,  6-C ) :   0.7226
B(  5-C ,  7-C ) :   0.4416 B(  5-C ,  8-C ) :  -0.5229 B(  5-C , 14-N ) :   0.3067
B(  5-C , 16-N ) :   0.1758 B(  5-C , 17-H ) :  -0.1056 B(  6-C , 16-N ) :  -0.2565
B(  6-C , 18-O ) :   0.5466 B(  6-C , 19-H ) :  -0.1284 B(  7-C , 14-N ) :   0.1257
B(  7-C , 15-C ) :  -0.1402 B(  7-C , 16-N ) :   0.9856 B(  7-C , 18-O ) :   0.7051
B(  8-C ,  9-S ) :   0.1278 B(  8-C , 10-O ) :  -0.1100 B(  8-C , 18-O ) :  -0.1296
B(  8-C , 19-H ) :   1.4320 B(  9-S , 10-O ) :   1.2161 B(  9-S , 11-O ) :   1.1671
B(  9-S , 12-N ) :   1.3015 B( 11-O , 12-N ) :   0.1065 B( 12-N , 13-H ) :   0.9165
B( 14-N , 15-C ) :   0.8520 B( 14-N , 17-H ) :   1.2211 B( 15-C , 16-N ) :   0.7545
B( 15-C , 21-C ) :   0.9696 B( 15-C , 22-H ) :   0.8025 B( 16-N , 20-H ) :   1.0285
B( 21-C , 23-H ) :   0.9234 B( 21-C , 24-Cl) :   0.6837 B( 21-C , 25-Cl) :   0.6759

MP2 TOTAL ENERGY:    -2513.794034044 Eh
Dispersion correction           -0.025660865
FINAL SINGLE POINT ENERGY     -2513.819694908627

DIPOLE MOMENT
-------------
                                X             Y             Z
Electronic contribution:     -2.46346      -7.72944      -7.63777
Nuclear contribution   :      2.36509       5.49728       0.65651
                        -----------------------------------------
Total Dipole Moment    :     -0.09837      -2.23216      -6.98126
                        -----------------------------------------
Magnitude (a.u.)       :      7.33009
Magnitude (Debye)      :     18.63160

Rotational constants in cm-1:     0.016166     0.004834     0.004210
Rotational constants in MHz :   484.637449   144.916051   126.211742

                             ****ORCA TERMINATED NORMALLY****
TOTAL RUN TIME: 0 days 0 hours 7 minutes 7 seconds 653 msec
