                         Program Version 5.0.3 -  RELEASE  -
|  1> !PAL8
|  2> !RI-DSD-PBEP86 D3BJ aug-cc-pVTZ aug-cc-pVTZ/C TightSCF
|  3> %maxcore 3000
|  4>
|  5>
|  6> * xyz -1 1
|  7> C -1.4278866799  0.9612545263 -0.6200683282
|  8> C -2.4962134479  0.7510288231 -1.4966653505
|  9> Cl -4.147812193  0.8975525432 -0.9554505527
| 10> C -2.3130924497  0.4243761565 -2.8342045805
| 11> H -3.17568134  0.3032210185 -3.4835420756
| 12> C -1.02426784  0.270682845 -3.3536347091
| 13> C  0.0468465852  0.4683371976 -2.4758414789
| 14> S  1.6836984727  0.1881862631 -3.0476482406
| 15> C -0.1476408024  0.8161708374 -1.1386762856
| 16> H  0.6953984004  0.9863377881 -0.4730739892
| 17> S -1.6180257208  1.3899633268  1.1686826778
| 18> O -0.2074020112  1.5130166449  1.5707453219
| 19> O -2.4027109515  2.6414984221  1.091944464
| 20> N -2.3104677885  0.1904618893  1.8800381267
| 21> H -3.3163907096  0.3325290261  1.7767719536
| 22> N -0.8590521603  0.0076242107 -4.7160237335
| 23> C  0.4240295631 -0.3954070032 -5.2549865267
| 24> N  1.4523702532  0.5079242866 -4.7168891009
| 25> O  2.6065388845  1.1941327413 -2.5471906649
| 26> O  2.0461452917 -1.2226013181 -2.9000849761
| 27> H -1.6301653605 -0.5094028203 -5.1244179929
| 28> C  2.749827027  0.4448652367 -5.4027986273
| 29> C  0.3649937683 -0.2807101694 -6.7794484327
| 30> S -0.9524259696 -1.3010413995 -7.5215880885
| 31> C -0.2039570506 -2.949375513 -7.4021479987
| 32> C  0.6831866177 -3.2932057019 -8.5772813477
| 33> H  0.6830873861 -1.4367371681 -4.9757206959
| 34> H  2.6753214757  0.9701128781 -6.3567600085
| 35> H  3.0899372118 -0.5880465186 -5.5681505947
| 36> H  3.4830239121  0.9660092402 -4.785154653
| 37> H  1.3111741176 -0.5607774609 -7.2425675329
| 38> H  0.1269437739  0.75324036 -7.0478444069
| 39> H -1.0132657226 -3.682983747 -7.3760250724
| 40> H  0.3813544817 -3.0557543245 -6.484926215
| 41> F  0.0140121701 -3.2917202547 -9.7394070819
| 42> F  1.2098622806 -4.5232561159 -8.4247889377
| 43> F  1.713123525 -2.4375317466 -8.7085732642
| 44> *
| 45>
| 46>                          ****END OF INPUT****

CARTESIAN COORDINATES (ANGSTROEM)
---------------------------------
  C     -1.427887    0.961255   -0.620068
  C     -2.496213    0.751029   -1.496665
  Cl    -4.147812    0.897553   -0.955451
  C     -2.313092    0.424376   -2.834205
  H     -3.175681    0.303221   -3.483542
  C     -1.024268    0.270683   -3.353635
  C      0.046847    0.468337   -2.475841
  S      1.683698    0.188186   -3.047648
  C     -0.147641    0.816171   -1.138676
  H      0.695398    0.986338   -0.473074
  S     -1.618026    1.389963    1.168683
  O     -0.207402    1.513017    1.570745
  O     -2.402711    2.641498    1.091944
  N     -2.310468    0.190462    1.880038
  H     -3.316391    0.332529    1.776772
  N     -0.859052    0.007624   -4.716024
  C      0.424030   -0.395407   -5.254987
  N      1.452370    0.507924   -4.716889
  O      2.606539    1.194133   -2.547191
  O      2.046145   -1.222601   -2.900085
  H     -1.630165   -0.509403   -5.124418
  C      2.749827    0.444865   -5.402799
  C      0.364994   -0.280710   -6.779448
  S     -0.952426   -1.301041   -7.521588
  C     -0.203957   -2.949376   -7.402148
  C      0.683187   -3.293206   -8.577281
  H      0.683087   -1.436737   -4.975721
  H      2.675321    0.970113   -6.356760
  H      3.089937   -0.588047   -5.568151
  H      3.483024    0.966009   -4.785155
  H      1.311174   -0.560777   -7.242568
  H      0.126944    0.753240   -7.047844
  H     -1.013266   -3.682984   -7.376025
  H      0.381354   -3.055754   -6.484926
  F      0.014012   -3.291720   -9.739407
  F      1.209862   -4.523256   -8.424789
  F      1.713124   -2.437532   -8.708573

 Total Charge           Charge          ....   -1
 Multiplicity           Mult            ....    1
 Number of Electrons    NEL             ....  224
 Basis Dimension        Dim             .... 1442

ORBITAL ENERGIES
----------------

  NO   OCC          E(Eh)            E(eV)
   0   2.0000    -103.514110     -2816.7621
   1   2.0000     -90.954422     -2474.9956
   2   2.0000     -90.857562     -2472.3599
   3   2.0000     -90.778144     -2470.1989
   4   2.0000     -25.693580      -699.1579
   5   2.0000     -25.692257      -699.1218
   6   2.0000     -25.691693      -699.1065
   7   2.0000     -19.935727      -542.4787
   8   2.0000     -19.933233      -542.4109
   9   2.0000     -19.835853      -539.7610
  10   2.0000     -19.835155      -539.7420
  11   2.0000     -15.068721      -410.0407
  12   2.0000     -15.051002      -409.5586
  13   2.0000     -14.894615      -405.3031
  14   2.0000     -11.060749      -300.9783
  15   2.0000     -10.864723      -295.6441
  16   2.0000     -10.852570      -295.3134
  17   2.0000     -10.828245      -294.6515
  18   2.0000     -10.825941      -294.5888
  19   2.0000     -10.822794      -294.5032
  20   2.0000     -10.806277      -294.0538
  21   2.0000     -10.784002      -293.4476
  22   2.0000     -10.763894      -292.9005
  23   2.0000     -10.762748      -292.8693
  24   2.0000     -10.751042      -292.5507
  25   2.0000     -10.062045      -273.8022
  26   2.0000      -8.699173      -236.7165
  27   2.0000      -8.598757      -233.9841
  28   2.0000      -8.554121      -232.7695
  29   2.0000      -7.635203      -207.7644
  30   2.0000      -7.630748      -207.6432
  31   2.0000      -7.630426      -207.6345
  32   2.0000      -6.485723      -176.4855
  33   2.0000      -6.482883      -176.4082
  34   2.0000      -6.482322      -176.3930
  35   2.0000      -6.385522      -173.7589
  36   2.0000      -6.383100      -173.6930
  37   2.0000      -6.382119      -173.6663
  38   2.0000      -6.337173      -172.4432
  39   2.0000      -6.334863      -172.3804
  40   2.0000      -6.332147      -172.3065
  41   2.0000      -1.541342       -41.9420
  42   2.0000      -1.448755       -39.4226
  43   2.0000      -1.447279       -39.3825
  44   2.0000      -1.254836       -34.1458
  45   2.0000      -1.148320       -31.2474
  46   2.0000      -1.135765       -30.9057
  47   2.0000      -1.117163       -30.3995
  48   2.0000      -1.045747       -28.4562
  49   2.0000      -1.031935       -28.0804
  50   2.0000      -0.992265       -27.0009
  51   2.0000      -0.974674       -26.5222
  52   2.0000      -0.938291       -25.5322
  53   2.0000      -0.902326       -24.5536
  54   2.0000      -0.890528       -24.2325
  55   2.0000      -0.855629       -23.2829
  56   2.0000      -0.844103       -22.9692
  57   2.0000      -0.814668       -22.1683
  58   2.0000      -0.800297       -21.7772
  59   2.0000      -0.764660       -20.8075
  60   2.0000      -0.714676       -19.4473
  61   2.0000      -0.705331       -19.1930
  62   2.0000      -0.703062       -19.1313
  63   2.0000      -0.698547       -19.0084
  64   2.0000      -0.686436       -18.6789
  65   2.0000      -0.647512       -17.6197
  66   2.0000      -0.628490       -17.1021
  67   2.0000      -0.610423       -16.6104
  68   2.0000      -0.591563       -16.0972
  69   2.0000      -0.586420       -15.9573
  70   2.0000      -0.582864       -15.8605
  71   2.0000      -0.580840       -15.8055
  72   2.0000      -0.561662       -15.2836
  73   2.0000      -0.547563       -14.8999
  74   2.0000      -0.544547       -14.8179
  75   2.0000      -0.528722       -14.3872
  76   2.0000      -0.524435       -14.2706
  77   2.0000      -0.520575       -14.1656
  78   2.0000      -0.506999       -13.7961
  79   2.0000      -0.503051       -13.6887
  80   2.0000      -0.499972       -13.6049
  81   2.0000      -0.483886       -13.1672
  82   2.0000      -0.481416       -13.1000
  83   2.0000      -0.476031       -12.9535
  84   2.0000      -0.468813       -12.7571
  85   2.0000      -0.467175       -12.7125
  86   2.0000      -0.456139       -12.4122
  87   2.0000      -0.440381       -11.9834
  88   2.0000      -0.435089       -11.8394
  89   2.0000      -0.429076       -11.6757
  90   2.0000      -0.419831       -11.4242
  91   2.0000      -0.408428       -11.1139
  92   2.0000      -0.401812       -10.9339
  93   2.0000      -0.387130       -10.5343
  94   2.0000      -0.377808       -10.2807
  95   2.0000      -0.366780        -9.9806
  96   2.0000      -0.362512        -9.8645
  97   2.0000      -0.351662        -9.5692
  98   2.0000      -0.343901        -9.3580
  99   2.0000      -0.329809        -8.9746
 100   2.0000      -0.320370        -8.7177
 101   2.0000      -0.307540        -8.3686
 102   2.0000      -0.294620        -8.0170
 103   2.0000      -0.291952        -7.9444
 104   2.0000      -0.283148        -7.7049
 105   2.0000      -0.268858        -7.3160
 106   2.0000      -0.254893        -6.9360
 107   2.0000      -0.238763        -6.4971
 108   2.0000      -0.229775        -6.2525
 109   2.0000      -0.205054        -5.5798
 110   2.0000      -0.203686        -5.5426
 111   2.0000      -0.167260        -4.5514
 112   0.0000       0.066548         1.8109
 113   0.0000       0.073211         1.9922
 114   0.0000       0.080955         2.2029
 115   0.0000       0.091628         2.4933
 116   0.0000       0.095189         2.5902

MULLIKEN ATOMIC CHARGES
-----------------------
   0 C :   -0.243633
   1 C :    0.848625
   2 Cl:   -0.533577
   3 C :   -0.412509
   4 H :    0.371470
   5 C :    0.509918
   6 C :    0.770779
   7 S :    2.304305
   8 C :   -1.592240
   9 H :    0.282998
  10 S :    2.137168
  11 O :   -1.008223
  12 O :   -1.042798
  13 N :   -1.125718
  14 H :    0.133632
  15 N :   -0.709759
  16 C :    0.975032
  17 N :   -0.667766
  18 O :   -1.038391
  19 O :   -1.137901
  20 H :    0.062637
  21 C :   -1.117306
  22 C :   -0.431121
  23 S :   -0.554111
  24 C :   -0.523895
  25 C :    1.183186
  26 H :    0.489263
  27 H :    0.304520
  28 H :    0.343859
  29 H :    0.371611
  30 H :    0.387894
  31 H :    0.259296
  32 H :    0.300823
  33 H :    0.293929
  34 F :   -0.393655
  35 F :   -0.400008
  36 F :   -0.398333
Sum of atomic charges:   -1.0000000

LOEWDIN ATOMIC CHARGES
----------------------
   0 C :   -0.292783
   1 C :   -0.782160
   2 Cl:    1.013534
   3 C :    0.116510
   4 H :   -0.202368
   5 C :   -0.263413
   6 C :   -0.218788
   7 S :    0.182836
   8 C :    0.111932
   9 H :   -0.228549
  10 S :   -0.154537
  11 O :    0.013552
  12 O :   -0.032961
  13 N :    0.274112
  14 H :   -0.625596
  15 N :    0.557753
  16 C :   -0.371048
  17 N :    0.166011
  18 O :    0.095589
  19 O :    0.075650
  20 H :   -0.349150
  21 C :    0.398950
  22 C :   -0.029968
  23 S :    1.280231
  24 C :   -0.088196
  25 C :   -1.598157
  26 H :   -0.166346
  27 H :   -0.174768
  28 H :   -0.153189
  29 H :   -0.200802
  30 H :   -0.256817
  31 H :   -0.193629
  32 H :   -0.221453
  33 H :   -0.222626
  34 F :    0.508673
  35 F :    0.510518
  36 F :    0.521450

  Mayer bond orders larger than 0.100000
B(  0-C ,  1-C ) :   1.1968 B(  0-C ,  2-Cl) :   0.8359 B(  0-C ,  3-C ) :  -0.3758
B(  0-C ,  6-C ) :   0.4767 B(  0-C ,  8-C ) :   1.3733 B(  0-C ,  9-H ) :   0.1015
B(  0-C , 10-S ) :   0.7094 B(  0-C , 11-O ) :   0.2088 B(  0-C , 13-N ) :   0.2179
B(  0-C , 16-C ) :  -0.1185 B(  1-C ,  2-Cl) :  -0.2164 B(  1-C ,  3-C ) :   1.1958
B(  1-C ,  4-H ) :  -0.1430 B(  1-C ,  5-C ) :   0.2013 B(  1-C , 12-O ) :   0.2403
B(  1-C , 13-N ) :  -0.1384 B(  2-Cl,  3-C ) :  -0.1116 B(  2-Cl,  5-C ) :  -0.1637
B(  2-Cl,  8-C ) :   0.1329 B(  3-C ,  4-H ) :   0.7564 B(  3-C ,  5-C ) :   0.3791
B(  3-C ,  6-C ) :   0.1666 B(  3-C ,  7-S ) :  -0.1217 B(  3-C ,  8-C ) :  -0.2221
B(  3-C , 13-N ) :  -0.1127 B(  3-C , 16-C ) :   0.1181 B(  3-C , 17-N ) :  -0.1227
B(  4-H ,  6-C ) :   0.1220 B(  5-C ,  6-C ) :   0.6910 B(  5-C ,  7-S ) :   0.2501
B(  5-C ,  8-C ) :  -0.3616 B(  5-C , 15-N ) :   0.5923 B(  6-C ,  7-S ) :   0.5675
B(  6-C ,  8-C ) :   0.4633 B(  6-C , 12-O ) :  -0.1377 B(  6-C , 15-N ) :  -0.3264
B(  6-C , 17-N ) :   0.2771 B(  6-C , 18-O ) :   0.3266 B(  7-S ,  8-C ) :   0.1164
B(  7-S , 17-N ) :   1.1233 B(  7-S , 18-O ) :   0.6950 B(  7-S , 19-O ) :   1.0223
B(  8-C ,  9-H ) :   0.9014 B(  8-C , 10-S ) :   0.1458 B(  8-C , 12-O ) :  -0.1757
B(  8-C , 13-N ) :   0.1469 B( 10-S , 11-O ) :   1.1633 B( 10-S , 12-O ) :   1.1814
B( 10-S , 13-N ) :   1.3093 B( 12-O , 13-N ) :   0.1074 B( 13-N , 14-H ) :   0.9080
B( 15-N , 16-C ) :   0.1517 B( 15-N , 20-H ) :   1.1617 B( 15-N , 22-C ) :   0.1111
B( 16-C , 17-N ) :   0.3336 B( 16-C , 19-O ) :   0.1263 B( 16-C , 22-C ) :   0.8152
B( 16-C , 23-S ) :   0.3725 B( 16-C , 26-H ) :   0.8954 B( 17-N , 19-O ) :   0.1297
B( 17-N , 21-C ) :   0.8935 B( 17-N , 26-H ) :  -0.2392 B( 19-O , 21-C ) :   0.1373
B( 20-H , 23-S ) :  -0.1271 B( 21-C , 27-H ) :   0.9614 B( 21-C , 28-H ) :   0.9148
B( 21-C , 29-H ) :   0.8961 B( 22-C , 23-S ) :   0.6165 B( 22-C , 30-H ) :   0.8252
B( 22-C , 31-H ) :   1.0679 B( 23-S , 24-C ) :   0.8474 B( 23-S , 31-H ) :  -0.2039
B( 24-C , 25-C ) :   1.0213 B( 24-C , 32-H ) :   0.8816 B( 24-C , 33-H ) :   0.8755
B( 24-C , 35-F ) :   0.1128 B( 25-C , 34-F ) :   0.7450 B( 25-C , 35-F ) :   0.7340
B( 25-C , 36-F ) :   0.8036

MP2 TOTAL ENERGY:    -2843.271849420 Eh
Dispersion correction           -0.034180777
FINAL SINGLE POINT ENERGY     -2843.306030197735

DIPOLE MOMENT
-------------
                                X             Y             Z
Electronic contribution:     -7.75115      -7.96947      -7.73079
Nuclear contribution   :      8.39950       5.07265      -1.28993
                        -----------------------------------------
Total Dipole Moment    :      0.64835      -2.89683      -9.02072
                        -----------------------------------------
Magnitude (a.u.)       :      9.49659
Magnitude (Debye)      :     24.13843

Rotational constants in cm-1:     0.011595     0.002359     0.002104
Rotational constants in MHz :   347.602072    70.720622    63.076273

                             ****ORCA TERMINATED NORMALLY****
TOTAL RUN TIME: 0 days 0 hours 14 minutes 25 seconds 947 msec
