                         Program Version 5.0.3 -  RELEASE  -
|  1> !PAL8
|  2> !RI-DSD-PBEP86 D3BJ aug-cc-pVTZ aug-cc-pVTZ/C TightSCF
|  3> %maxcore 3000
|  4>
|  5>
|  6> * xyz -1 1
|  7> C -1.9076353495  1.2147483907 -1.1290807528
|  8> C -2.8663787225  0.2891843439 -1.540502982
|  9> Cl -4.5130032636  0.3558891051 -0.9565503852
| 10> C -2.5567704213 -0.7240245014 -2.4450447946
| 11> H -3.3285447141 -1.4269965631 -2.7433255516
| 12> C -1.2701031693 -0.8206460953 -2.9652732579
| 13> C -0.2919575403  0.0867543829 -2.5588289483
| 14> C -0.6179219028  1.0894441289 -1.6453410569
| 15> S -2.2562358384  2.6348378622 -0.000001148
| 16> O -2.7476278624  1.9493506902  1.2152118754
| 17> O -0.9270302816  3.2653003824  0.0898938118
| 18> N -3.2708956651  3.5739083612 -0.7200722767
| 19> H -4.201687822  3.2004326588 -0.5269866378
| 20> H  0.1262017593  1.8023671552 -1.3043548861
| 21> C  1.091035257  0.0724667681 -3.1868950118
| 22> N  1.4820358283 -1.234243399 -3.7067889014
| 23> C  1.1386827147  0.9037621115 -4.4668739924
| 24> C  1.7207478031 -1.2887388872 -5.0549842586
| 25> C  1.512374021  0.1096435602 -5.5427967179
| 26> O  2.0341612299 -2.2719650403 -5.7021360876
| 27> C  0.8720004636  2.256267963 -4.629149178
| 28> C  0.9998698767  2.7873818634 -5.9146841313
| 29> C  1.3763543747  1.9852955237 -6.9999754829
| 30> C  1.6368283078  0.6259531713 -6.8255611566
| 31> O  2.0065521119  0.535614322 -2.2214121438
| 32> H -1.0378846531 -1.5983807362 -3.6880379603
| 33> H  1.4929826292 -2.0611821021 -3.1239495479
| 34> H  0.5582919926  2.8718098281 -3.7896999425
| 35> H  0.7920473533  3.8410091 -6.0775303461
| 36> H  1.4588788508  2.4291416303 -7.9879943844
| 37> H  1.9239501164 -0.0168266268 -7.6527644842
| 38> H  2.8569605157  0.6826426482 -2.6632472815
| 39> *
| 40>
| 41>                          ****END OF INPUT****

CARTESIAN COORDINATES (ANGSTROEM)
---------------------------------
  C     -1.907635    1.214748   -1.129081
  C     -2.866379    0.289184   -1.540503
  Cl    -4.513003    0.355889   -0.956550
  C     -2.556770   -0.724025   -2.445045
  H     -3.328545   -1.426997   -2.743326
  C     -1.270103   -0.820646   -2.965273
  C     -0.291958    0.086754   -2.558829
  C     -0.617922    1.089444   -1.645341
  S     -2.256236    2.634838   -0.000001
  O     -2.747628    1.949351    1.215212
  O     -0.927030    3.265300    0.089894
  N     -3.270896    3.573908   -0.720072
  H     -4.201688    3.200433   -0.526987
  H      0.126202    1.802367   -1.304355
  C      1.091035    0.072467   -3.186895
  N      1.482036   -1.234243   -3.706789
  C      1.138683    0.903762   -4.466874
  C      1.720748   -1.288739   -5.054984
  C      1.512374    0.109644   -5.542797
  O      2.034161   -2.271965   -5.702136
  C      0.872000    2.256268   -4.629149
  C      0.999870    2.787382   -5.914684
  C      1.376354    1.985296   -6.999975
  C      1.636828    0.625953   -6.825561
  O      2.006552    0.535614   -2.221412
  H     -1.037885   -1.598381   -3.688038
  H      1.492983   -2.061182   -3.123950
  H      0.558292    2.871810   -3.789700
  H      0.792047    3.841009   -6.077530
  H      1.458879    2.429142   -7.987994
  H      1.923950   -0.016827   -7.652764
  H      2.856961    0.682643   -2.663247

 Total Charge           Charge          ....   -1
 Multiplicity           Mult            ....    1
 Number of Electrons    NEL             ....  174
 Basis Dimension        Dim             .... 1250

ORBITAL ENERGIES
----------------

  NO   OCC          E(Eh)            E(eV)
   0   2.0000    -103.501476     -2816.4184
   1   2.0000     -90.853379     -2472.2461
   2   2.0000     -19.965457      -543.2877
   3   2.0000     -19.925161      -542.1912
   4   2.0000     -19.832656      -539.6740
   5   2.0000     -19.831508      -539.6428
   6   2.0000     -15.050438      -409.5432
   7   2.0000     -14.891481      -405.2178
   8   2.0000     -10.882943      -296.1399
   9   2.0000     -10.874757      -295.9172
  10   2.0000     -10.801426      -293.9217
  11   2.0000     -10.788210      -293.5621
  12   2.0000     -10.786735      -293.5220
  13   2.0000     -10.786385      -293.5125
  14   2.0000     -10.784189      -293.4527
  15   2.0000     -10.781892      -293.3902
  16   2.0000     -10.779960      -293.3376
  17   2.0000     -10.758766      -292.7609
  18   2.0000     -10.753537      -292.6186
  19   2.0000     -10.752021      -292.5774
  20   2.0000     -10.747840      -292.4636
  21   2.0000     -10.737606      -292.1851
  22   2.0000     -10.049413      -273.4584
  23   2.0000      -8.594731      -233.8745
  24   2.0000      -7.622539      -207.4198
  25   2.0000      -7.618129      -207.2998
  26   2.0000      -7.617880      -207.2930
  27   2.0000      -6.381380      -173.6462
  28   2.0000      -6.379103      -173.5842
  29   2.0000      -6.378150      -173.5583
  30   2.0000      -1.206104       -32.8197
  31   2.0000      -1.186929       -32.2980
  32   2.0000      -1.144174       -31.1346
  33   2.0000      -1.070172       -29.1209
  34   2.0000      -1.027800       -27.9679
  35   2.0000      -0.991326       -26.9753
  36   2.0000      -0.980146       -26.6711
  37   2.0000      -0.922375       -25.0991
  38   2.0000      -0.886749       -24.1297
  39   2.0000      -0.879778       -23.9400
  40   2.0000      -0.873582       -23.7714
  41   2.0000      -0.832048       -22.6412
  42   2.0000      -0.829920       -22.5833
  43   2.0000      -0.755989       -20.5715
  44   2.0000      -0.732181       -19.9237
  45   2.0000      -0.682231       -18.5644
  46   2.0000      -0.676340       -18.4041
  47   2.0000      -0.646281       -17.5862
  48   2.0000      -0.635929       -17.3045
  49   2.0000      -0.602956       -16.4073
  50   2.0000      -0.571131       -15.5413
  51   2.0000      -0.560466       -15.2511
  52   2.0000      -0.548894       -14.9362
  53   2.0000      -0.538705       -14.6589
  54   2.0000      -0.519656       -14.1406
  55   2.0000      -0.492297       -13.3961
  56   2.0000      -0.487709       -13.2712
  57   2.0000      -0.484980       -13.1970
  58   2.0000      -0.483165       -13.1476
  59   2.0000      -0.472442       -12.8558
  60   2.0000      -0.464069       -12.6279
  61   2.0000      -0.451561       -12.2876
  62   2.0000      -0.440184       -11.9780
  63   2.0000      -0.431618       -11.7449
  64   2.0000      -0.422473       -11.4961
  65   2.0000      -0.403017       -10.9667
  66   2.0000      -0.400657       -10.9024
  67   2.0000      -0.395932       -10.7739
  68   2.0000      -0.391839       -10.6625
  69   2.0000      -0.388191       -10.5632
  70   2.0000      -0.372932       -10.1480
  71   2.0000      -0.361211        -9.8290
  72   2.0000      -0.344341        -9.3700
  73   2.0000      -0.317996        -8.6531
  74   2.0000      -0.311839        -8.4856
  75   2.0000      -0.299844        -8.1592
  76   2.0000      -0.291260        -7.9256
  77   2.0000      -0.286262        -7.7896
  78   2.0000      -0.266295        -7.2463
  79   2.0000      -0.257844        -7.0163
  80   2.0000      -0.255843        -6.9619
  81   2.0000      -0.251574        -6.8457
  82   2.0000      -0.240266        -6.5380
  83   2.0000      -0.214374        -5.8334
  84   2.0000      -0.204870        -5.5748
  85   2.0000      -0.199818        -5.4373
  86   2.0000      -0.166102        -4.5199
  87   0.0000       0.070983         1.9315
  88   0.0000       0.085504         2.3267
  89   0.0000       0.088844         2.4176
  90   0.0000       0.091239         2.4827
  91   0.0000       0.096020         2.6128

MULLIKEN ATOMIC CHARGES
-----------------------
   0 C :   -0.542197
   1 C :    0.954711
   2 Cl:   -0.549635
   3 C :   -1.013304
   4 H :    0.368221
   5 C :   -0.285990
   6 C :    1.300826
   7 C :   -0.780231
   8 S :    2.117881
   9 O :   -1.040912
  10 O :   -1.005123
  11 N :   -1.143230
  12 H :    0.130061
  13 H :    0.246746
  14 C :    0.683866
  15 N :    0.084691
  16 C :    0.917788
  17 C :    0.589081
  18 C :    0.876773
  19 O :   -1.043299
  20 C :   -1.214464
  21 C :   -0.588554
  22 C :   -0.425116
  23 C :   -0.976632
  24 O :   -0.837215
  25 H :    0.379008
  26 H :   -0.014905
  27 H :    0.427841
  28 H :    0.453342
  29 H :    0.735576
  30 H :    0.048215
  31 H :    0.146179
Sum of atomic charges:   -1.0000000

LOEWDIN ATOMIC CHARGES
----------------------
   0 C :   -0.286058
   1 C :   -0.784304
   2 Cl:    0.987569
   3 C :    0.094231
   4 H :   -0.209318
   5 C :    0.198277
   6 C :   -0.106771
   7 C :    0.150164
   8 S :   -0.151822
   9 O :   -0.033618
  10 O :    0.010693
  11 N :    0.272737
  12 H :   -0.626780
  13 H :   -0.244780
  14 C :   -0.641275
  15 N :    0.573163
  16 C :   -0.096078
  17 C :   -0.662440
  18 C :   -0.112207
  19 O :    0.430451
  20 C :    0.265095
  21 C :    0.216445
  22 C :    0.202821
  23 C :    0.234829
  24 O :    0.872674
  25 H :   -0.182624
  26 H :   -0.236854
  27 H :   -0.153603
  28 H :   -0.177584
  29 H :   -0.185677
  30 H :   -0.166880
  31 H :   -0.450474

  Mayer bond orders larger than 0.100000
B(  0-C ,  1-C ) :   1.5880 B(  0-C ,  2-Cl) :   0.8682 B(  0-C ,  3-C ) :   0.1290
B(  0-C ,  5-C ) :  -0.1247 B(  0-C ,  6-C ) :   0.1573 B(  0-C ,  7-C ) :   1.3749
B(  0-C ,  8-S ) :   0.6646 B(  0-C ,  9-O ) :   0.2812 B(  0-C , 10-O ) :   0.1970
B(  0-C , 11-N ) :   0.1364 B(  0-C , 23-C ) :   0.1622 B(  1-C ,  2-Cl) :  -0.3178
B(  1-C ,  3-C ) :   1.2199 B(  1-C ,  5-C ) :   0.2516 B(  1-C ,  6-C ) :  -0.1394
B(  1-C ,  8-S ) :   0.1966 B(  1-C ,  9-O ) :  -0.1431 B(  1-C , 14-C ) :   0.1798
B(  1-C , 16-C ) :  -0.1051 B(  1-C , 23-C ) :  -0.1094 B(  2-Cl,  5-C ) :  -0.1475
B(  3-C ,  4-H ) :   0.8908 B(  3-C ,  5-C ) :   0.8089 B(  3-C ,  6-C ) :  -0.3289
B(  3-C ,  9-O ) :  -0.1065 B(  3-C , 25-H ) :  -0.1213 B(  5-C ,  7-C ) :  -0.2932
B(  5-C , 14-C ) :   0.4683 B(  5-C , 15-N ) :  -0.1244 B(  5-C , 25-H ) :   1.0184
B(  6-C ,  7-C ) :   0.2870 B(  6-C , 14-C ) :   0.3490 B(  6-C , 16-C ) :   0.3328
B(  6-C , 24-O ) :   0.3838 B(  6-C , 26-H ) :  -0.1255 B(  7-C , 10-O ) :  -0.1061
B(  7-C , 13-H ) :   0.9812 B(  7-C , 20-C ) :  -0.1030 B(  7-C , 24-O ) :  -0.1049
B(  8-S ,  9-O ) :   1.1470 B(  8-S , 10-O ) :   1.1978 B(  8-S , 11-N ) :   1.3098
B( 11-N , 12-H ) :   0.9068 B( 14-C , 15-N ) :   0.9078 B( 14-C , 16-C ) :   0.7184
B( 14-C , 17-C ) :  -0.1920 B( 14-C , 18-C ) :   0.6022 B( 14-C , 19-O ) :   0.1362
B( 14-C , 20-C ) :   0.3755 B( 14-C , 23-C ) :  -0.3137 B( 14-C , 24-O ) :  -0.1555
B( 14-C , 26-H ) :   0.2327 B( 15-N , 17-C ) :   1.1244 B( 15-N , 18-C ) :  -0.4493
B( 15-N , 19-O ) :  -0.1019 B( 15-N , 26-H ) :   1.1129 B( 16-C , 17-C ) :   0.3711
B( 16-C , 18-C ) :   0.4233 B( 16-C , 19-O ) :   0.1182 B( 16-C , 21-C ) :  -0.3608
B( 16-C , 23-C ) :   0.3626 B( 16-C , 28-H ) :  -0.1300 B( 16-C , 29-H ) :   0.2268
B( 17-C , 19-O ) :   0.4615 B( 17-C , 20-C ) :  -0.1553 B( 17-C , 23-C ) :   0.1828
B( 17-C , 29-H ) :   0.1045 B( 17-C , 30-H ) :  -0.1602 B( 18-C , 19-O ) :   0.3423
B( 18-C , 20-C ) :  -0.1339 B( 18-C , 21-C ) :   0.1037 B( 18-C , 22-C ) :   0.2090
B( 18-C , 23-C ) :   0.1921 B( 18-C , 28-H ) :   0.2005 B( 18-C , 29-H ) :  -0.1369
B( 18-C , 30-H ) :  -0.1068 B( 19-O , 30-H ) :   0.1463 B( 20-C , 21-C ) :   1.3769
B( 20-C , 22-C ) :   0.2025 B( 20-C , 23-C ) :   0.1094 B( 20-C , 27-H ) :   0.8541
B( 21-C , 22-C ) :   1.1969 B( 21-C , 23-C ) :  -0.2175 B( 21-C , 28-H ) :   0.7768
B( 22-C , 23-C ) :   1.0579 B( 22-C , 28-H ) :  -0.1274 B( 22-C , 29-H ) :   0.2972
B( 22-C , 30-H ) :  -0.1179 B( 23-C , 29-H ) :  -0.1245 B( 23-C , 30-H ) :   1.5490
B( 24-O , 31-H ) :   1.1064

MP2 TOTAL ENERGY:    -1806.494083356 Eh
Dispersion correction           -0.029158586
FINAL SINGLE POINT ENERGY     -1806.523241941350

DIPOLE MOMENT
-------------
                                X             Y             Z
Electronic contribution:    -10.10853      -3.59915      10.02249
Nuclear contribution   :     12.48172       1.49267     -14.39088
                        -----------------------------------------
Total Dipole Moment    :      2.37319      -2.10647      -4.36839
                        -----------------------------------------
Magnitude (a.u.)       :      5.39927
Magnitude (Debye)      :     13.72386

Rotational constants in cm-1:     0.015603     0.004676     0.004303
Rotational constants in MHz :   467.772847   140.194589   128.996740

                             ****ORCA TERMINATED NORMALLY****
TOTAL RUN TIME: 0 days 0 hours 11 minutes 21 seconds 655 msec
