                         Program Version 5.0.3 -  RELEASE  -
|  1> !PAL8
|  2> !RI-DSD-PBEP86 D3BJ aug-cc-pVTZ aug-cc-pVTZ/C TightSCF
|  3> %maxcore 3000
|  4>
|  5>
|  6> * xyz -1 1
|  7> C -2.2550371725  0.8288010247 -1.3377730099
|  8> C -2.21410062  1.9728945798 -2.1324016549
|  9> Cl -3.4100640061  3.2338678793 -1.9695424604
| 10> C -1.213023544  2.1643474816 -3.0864476694
| 11> H -1.2151925598  3.0705430496 -3.6842964965
| 12> C -0.2314835141  1.1989369584 -3.2613749139
| 13> C -0.2513138072  0.0404267115 -2.4803526014
| 14> C -1.2553489946 -0.1239104376 -1.5235103583
| 15> S -3.5275619701  0.499802383 -0.0375629365
| 16> O -4.7773468242  0.5491161457 -0.8268421801
| 17> O -3.1033952976 -0.8313664843  0.4370803122
| 18> N -3.3722254059  1.5694461751  1.0821068851
| 19> H -3.9065332995  2.3864307334  0.7818189218
| 20> H -1.3123502211 -0.9826962262 -0.8603010136
| 21> H  0.5569197206  1.3263542042 -3.9964227614
| 22> C  0.822599083 -0.9699635252 -2.7313045987
| 23> N  0.6352158646 -2.2023142038 -2.1487231985
| 24> O  1.8081596705 -0.7399421616 -3.4174655025
| 25> N  1.5424498875 -3.2316666013 -2.2927971922
| 26> C  1.6983256387 -3.8110391198 -3.6499264186
| 27> C  2.9983186079 -4.6261445988 -3.5041152438
| 28> C  3.740494807 -3.8777024315 -2.4199298295
| 29> C  2.8277304178 -3.0601075148 -1.7466701563
| 30> C  0.477241991 -4.6150941865 -4.0538097281
| 31> C  3.2083269977 -2.2582891552 -0.6796345024
| 32> C  4.5490421778 -2.2982109927 -0.2866212202
| 33> C  5.4723126043 -3.1142605038 -0.940569662
| 34> C  5.0646684982 -3.9131442883 -2.0171792777
| 35> H -0.2057231362 -2.4221243175 -1.6346171175
| 36> H  1.8658533109 -2.9851916705 -4.3553604619
| 37> H  3.5482369493 -4.6950200771 -4.4472150242
| 38> H  2.7628093967 -5.6479862716 -3.1718283061
| 39> H -0.4159975712 -3.9823728254 -4.0755999951
| 40> H  0.3072527576 -5.4331651715 -3.3454832075
| 41> H  0.6146216827 -5.0380586695 -5.0548872122
| 42> H  2.4893878814 -1.6129514001 -0.1836721105
| 43> H  4.8757360196 -1.672630405  0.5394447965
| 44> H  6.5102574914 -3.1228892902 -0.621273119
| 45> H  5.7820844883 -4.5445027968 -2.5369577752
| 46> *
| 47>
| 48>                          ****END OF INPUT****

CARTESIAN COORDINATES (ANGSTROEM)
---------------------------------
  C     -2.255037    0.828801   -1.337773
  C     -2.214101    1.972895   -2.132402
  Cl    -3.410064    3.233868   -1.969542
  C     -1.213024    2.164347   -3.086448
  H     -1.215193    3.070543   -3.684296
  C     -0.231484    1.198937   -3.261375
  C     -0.251314    0.040427   -2.480353
  C     -1.255349   -0.123910   -1.523510
  S     -3.527562    0.499802   -0.037563
  O     -4.777347    0.549116   -0.826842
  O     -3.103395   -0.831366    0.437080
  N     -3.372225    1.569446    1.082107
  H     -3.906533    2.386431    0.781819
  H     -1.312350   -0.982696   -0.860301
  H      0.556920    1.326354   -3.996423
  C      0.822599   -0.969964   -2.731305
  N      0.635216   -2.202314   -2.148723
  O      1.808160   -0.739942   -3.417466
  N      1.542450   -3.231667   -2.292797
  C      1.698326   -3.811039   -3.649926
  C      2.998319   -4.626145   -3.504115
  C      3.740495   -3.877702   -2.419930
  C      2.827730   -3.060108   -1.746670
  C      0.477242   -4.615094   -4.053810
  C      3.208327   -2.258289   -0.679635
  C      4.549042   -2.298211   -0.286621
  C      5.472313   -3.114261   -0.940570
  C      5.064668   -3.913144   -2.017179
  H     -0.205723   -2.422124   -1.634617
  H      1.865853   -2.985192   -4.355360
  H      3.548237   -4.695020   -4.447215
  H      2.762809   -5.647986   -3.171828
  H     -0.415998   -3.982373   -4.075600
  H      0.307253   -5.433165   -3.345483
  H      0.614622   -5.038059   -5.054887
  H      2.489388   -1.612951   -0.183672
  H      4.875736   -1.672630    0.539445
  H      6.510257   -3.122889   -0.621273
  H      5.782084   -4.544503   -2.536958

 Total Charge           Charge          ....   -1
 Multiplicity           Mult            ....    1
 Number of Electrons    NEL             ....  190
 Basis Dimension        Dim             .... 1457

ORBITAL ENERGIES
----------------

  NO   OCC          E(Eh)            E(eV)
   0   2.0000    -103.509049     -2816.6244
   1   2.0000     -90.860320     -2472.4350
   2   2.0000     -19.909362      -541.7613
   3   2.0000     -19.840278      -539.8814
   4   2.0000     -19.838016      -539.8199
   5   2.0000     -15.069398      -410.0592
   6   2.0000     -15.066472      -409.9796
   7   2.0000     -14.897398      -405.3788
   8   2.0000     -10.869965      -295.7868
   9   2.0000     -10.812029      -294.2103
  10   2.0000     -10.796945      -293.7998
  11   2.0000     -10.796194      -293.7794
  12   2.0000     -10.771112      -293.0969
  13   2.0000     -10.768695      -293.0311
  14   2.0000     -10.765844      -292.9535
  15   2.0000     -10.764389      -292.9139
  16   2.0000     -10.761560      -292.8369
  17   2.0000     -10.758939      -292.7656
  18   2.0000     -10.757670      -292.7311
  19   2.0000     -10.757527      -292.7272
  20   2.0000     -10.756283      -292.6933
  21   2.0000     -10.754632      -292.6484
  22   2.0000     -10.754326      -292.6401
  23   2.0000     -10.753166      -292.6085
  24   2.0000     -10.056923      -273.6628
  25   2.0000      -8.601650      -234.0628
  26   2.0000      -7.630042      -207.6240
  27   2.0000      -7.625653      -207.5046
  28   2.0000      -7.625341      -207.4961
  29   2.0000      -6.388359      -173.8361
  30   2.0000      -6.386031      -173.7728
  31   2.0000      -6.385011      -173.7450
  32   2.0000      -1.196094       -32.5474
  33   2.0000      -1.151181       -31.3252
  34   2.0000      -1.132451       -30.8155
  35   2.0000      -1.034682       -28.1551
  36   2.0000      -1.007998       -27.4290
  37   2.0000      -0.987063       -26.8593
  38   2.0000      -0.950306       -25.8592
  39   2.0000      -0.925969       -25.1969
  40   2.0000      -0.893745       -24.3200
  41   2.0000      -0.884036       -24.0558
  42   2.0000      -0.856170       -23.2976
  43   2.0000      -0.839971       -22.8568
  44   2.0000      -0.833724       -22.6868
  45   2.0000      -0.808679       -22.0053
  46   2.0000      -0.772863       -21.0307
  47   2.0000      -0.709082       -19.2951
  48   2.0000      -0.677406       -18.4332
  49   2.0000      -0.673832       -18.3359
  50   2.0000      -0.660793       -17.9811
  51   2.0000      -0.653661       -17.7870
  52   2.0000      -0.630289       -17.1510
  53   2.0000      -0.608937       -16.5700
  54   2.0000      -0.576813       -15.6959
  55   2.0000      -0.554340       -15.0843
  56   2.0000      -0.542604       -14.7650
  57   2.0000      -0.522885       -14.2284
  58   2.0000      -0.506392       -13.7796
  59   2.0000      -0.497019       -13.5246
  60   2.0000      -0.489631       -13.3235
  61   2.0000      -0.482265       -13.1231
  62   2.0000      -0.474216       -12.9041
  63   2.0000      -0.472586       -12.8597
  64   2.0000      -0.464425       -12.6377
  65   2.0000      -0.450276       -12.2526
  66   2.0000      -0.443292       -12.0626
  67   2.0000      -0.441554       -12.0153
  68   2.0000      -0.437817       -11.9136
  69   2.0000      -0.434803       -11.8316
  70   2.0000      -0.409357       -11.1392
  71   2.0000      -0.406548       -11.0627
  72   2.0000      -0.402685       -10.9576
  73   2.0000      -0.393895       -10.7184
  74   2.0000      -0.388114       -10.5611
  75   2.0000      -0.384412       -10.4604
  76   2.0000      -0.381262       -10.3747
  77   2.0000      -0.367936       -10.0121
  78   2.0000      -0.366019        -9.9599
  79   2.0000      -0.356181        -9.6922
  80   2.0000      -0.323440        -8.8012
  81   2.0000      -0.318986        -8.6800
  82   2.0000      -0.316489        -8.6121
  83   2.0000      -0.295759        -8.0480
  84   2.0000      -0.290676        -7.9097
  85   2.0000      -0.281401        -7.6573
  86   2.0000      -0.272904        -7.4261
  87   2.0000      -0.258774        -7.0416
  88   2.0000      -0.247152        -6.7253
  89   2.0000      -0.237377        -6.4594
  90   2.0000      -0.222347        -6.0504
  91   2.0000      -0.215057        -5.8520
  92   2.0000      -0.206681        -5.6241
  93   2.0000      -0.192678        -5.2430
  94   2.0000      -0.172217        -4.6863
  95   0.0000       0.069272         1.8850
  96   0.0000       0.075111         2.0439
  97   0.0000       0.084753         2.3063
  98   0.0000       0.087727         2.3872
  99   0.0000       0.092494         2.5169

MULLIKEN ATOMIC CHARGES
-----------------------
   0 C :    0.118589
   1 C :    0.985961
   2 Cl:   -0.534002
   3 C :   -0.670911
   4 H :    0.420103
   5 C :   -0.710290
   6 C :    1.655006
   7 C :   -1.168695
   8 S :    2.063590
   9 O :   -1.047017
  10 O :   -1.009561
  11 N :   -1.124192
  12 H :    0.122297
  13 H :    0.146961
  14 H :    0.184546
  15 C :    0.354876
  16 N :    0.315390
  17 O :   -1.243082
  18 N :   -0.479692
  19 C :    0.280196
  20 C :   -0.611153
  21 C :    0.678515
  22 C :    1.153968
  23 C :   -1.133423
  24 C :   -0.783694
  25 C :   -0.574435
  26 C :   -0.480380
  27 C :   -1.212286
  28 H :    0.007329
  29 H :    0.223476
  30 H :    0.255268
  31 H :    0.254274
  32 H :    0.407805
  33 H :    0.253606
  34 H :    0.210290
  35 H :    0.460635
  36 H :    0.425415
  37 H :    0.701397
  38 H :    0.103321
Sum of atomic charges:   -1.0000000

LOEWDIN ATOMIC CHARGES
----------------------
   0 C :   -0.285332
   1 C :   -0.783982
   2 Cl:    0.997312
   3 C :    0.098016
   4 H :   -0.209392
   5 C :    0.187270
   6 C :   -0.115812
   7 C :    0.152957
   8 S :   -0.146103
   9 O :   -0.031525
  10 O :    0.015116
  11 N :    0.275619
  12 H :   -0.622386
  13 H :   -0.263316
  14 H :   -0.188492
  15 C :   -0.656158
  16 N :    0.461872
  17 O :    0.493882
  18 N :    0.225142
  19 C :   -0.119538
  20 C :    0.322594
  21 C :   -0.081983
  22 C :   -0.224599
  23 C :    0.599174
  24 C :    0.243513
  25 C :    0.184614
  26 C :    0.178395
  27 C :    0.217360
  28 H :   -0.296400
  29 H :   -0.147208
  30 H :   -0.133293
  31 H :   -0.136759
  32 H :   -0.161875
  33 H :   -0.161280
  34 H :   -0.160051
  35 H :   -0.169532
  36 H :   -0.185015
  37 H :   -0.196310
  38 H :   -0.176494

  Mayer bond orders larger than 0.100000
B(  0-C ,  1-C ) :   1.3351 B(  0-C ,  2-Cl) :   0.2892 B(  0-C ,  3-C ) :  -0.1221
B(  0-C ,  6-C ) :   0.2213 B(  0-C ,  7-C ) :   1.5325 B(  0-C ,  8-S ) :   0.5542
B(  0-C , 10-O ) :  -0.2497 B(  0-C , 11-N ) :   0.1977 B(  0-C , 13-H ) :  -0.1416
B(  0-C , 20-C ) :   0.1337 B(  0-C , 21-C ) :  -0.1343 B(  0-C , 22-C ) :  -0.1175
B(  0-C , 25-C ) :   0.2369 B(  0-C , 30-H ) :   0.1217 B(  0-C , 37-H ) :  -0.2385
B(  0-C , 38-H ) :   0.1432 B(  1-C ,  3-C ) :   1.0152 B(  1-C ,  5-C ) :   0.1945
B(  1-C ,  6-C ) :  -0.1738 B(  1-C ,  7-C ) :   0.1674 B(  1-C ,  8-S ) :   0.1750
B(  1-C ,  9-O ) :   0.1035 B(  1-C , 15-C ) :   0.1596 B(  1-C , 20-C ) :  -0.1370
B(  1-C , 22-C ) :   0.2386 B(  1-C , 37-H ) :   0.1204 B(  2-Cl,  3-C ) :   0.2962
B(  2-Cl,  5-C ) :   0.1055 B(  2-Cl,  7-C ) :  -0.1200 B(  3-C ,  4-H ) :   0.7970
B(  3-C ,  5-C ) :   1.0178 B(  3-C ,  6-C ) :  -0.1780 B(  3-C , 14-H ) :  -0.2056
B(  3-C , 21-C ) :   0.3787 B(  3-C , 22-C ) :  -0.2866 B(  3-C , 24-C ) :  -0.2197
B(  3-C , 25-C ) :  -0.1828 B(  3-C , 26-C ) :  -0.1311 B(  3-C , 27-C ) :   0.8016
B(  3-C , 30-H ) :  -0.1122 B(  3-C , 37-H ) :   0.1514 B(  3-C , 38-H ) :  -0.3841
B(  4-H ,  7-C ) :   0.1039 B(  4-H , 22-C ) :   0.4046 B(  4-H , 27-C ) :  -0.3518
B(  5-C ,  6-C ) :   0.4014 B(  5-C ,  7-C ) :  -0.5110 B(  5-C , 14-H ) :   1.1754
B(  5-C , 15-C ) :   0.5374 B(  5-C , 22-C ) :  -0.1738 B(  5-C , 24-C ) :   0.3015
B(  5-C , 25-C ) :  -0.2039 B(  5-C , 26-C ) :  -0.1545 B(  5-C , 27-C ) :   0.1604
B(  6-C ,  7-C ) :   0.2096 B(  6-C , 13-H ) :  -0.1585 B(  6-C , 14-H ) :  -0.1291
B(  6-C , 15-C ) :   0.3650 B(  6-C , 16-N ) :  -0.1105 B(  6-C , 17-O ) :  -0.1779
B(  6-C , 24-C ) :  -0.1984 B(  6-C , 26-C ) :   0.1493 B(  6-C , 27-C ) :   0.1514
B(  6-C , 38-H ) :   0.1677 B(  7-C ,  8-S ) :   0.2521 B(  7-C ,  9-O ) :  -0.1118
B(  7-C , 10-O ) :   0.2955 B(  7-C , 13-H ) :   1.4695 B(  7-C , 14-H ) :   0.1142
B(  7-C , 16-N ) :  -0.1820 B(  7-C , 21-C ) :  -0.2052 B(  7-C , 25-C ) :   0.3273
B(  7-C , 26-C ) :   0.1152 B(  7-C , 27-C ) :  -0.5548 B(  7-C , 38-H ) :   0.2084
B(  8-S ,  9-O ) :   1.1963 B(  8-S , 10-O ) :   1.2352 B(  8-S , 11-N ) :   1.3481
B(  8-S , 21-C ) :   0.1085 B(  8-S , 25-C ) :  -0.1099 B(  9-O , 11-N ) :   0.1080
B( 11-N , 12-H ) :   0.9227 B( 14-H , 17-O ) :   0.1212 B( 14-H , 21-C ) :   0.1406
B( 14-H , 27-C ) :  -0.1176 B( 14-H , 38-H ) :  -0.1015 B( 15-C , 16-N ) :   1.0934
B( 15-C , 17-O ) :   0.9162 B( 15-C , 18-N ) :   0.2560 B( 15-C , 24-C ) :   0.2040
B( 15-C , 25-C ) :  -0.1085 B( 16-N , 18-N ) :   0.3219 B( 16-N , 21-C ) :   0.1895
B( 16-N , 22-C ) :  -0.2430 B( 16-N , 23-C ) :   0.1010 B( 16-N , 24-C ) :   0.2477
B( 16-N , 25-C ) :  -0.2005 B( 16-N , 28-H ) :   1.0515 B( 16-N , 35-H ) :  -0.1313
B( 18-N , 19-C ) :   0.8209 B( 18-N , 21-C ) :  -0.1630 B( 18-N , 22-C ) :   0.6586
B( 18-N , 24-C ) :  -0.2125 B( 18-N , 25-C ) :   0.2525 B( 19-C , 20-C ) :   0.8369
B( 19-C , 21-C ) :   0.2294 B( 19-C , 23-C ) :   0.5260 B( 19-C , 29-H ) :   0.9454
B( 19-C , 33-H ) :  -0.1007 B( 20-C , 21-C ) :   0.2940 B( 20-C , 30-H ) :   1.0758
B( 20-C , 31-H ) :   1.0743 B( 20-C , 38-H ) :  -0.1106 B( 21-C , 22-C ) :   0.7951
B( 21-C , 24-C ) :   0.2772 B( 21-C , 26-C ) :   0.3157 B( 21-C , 31-H ) :  -0.1130
B( 21-C , 36-H ) :   0.1653 B( 21-C , 37-H ) :  -0.1165 B( 21-C , 38-H ) :  -0.2009
B( 22-C , 24-C ) :  -0.3092 B( 22-C , 25-C ) :  -0.2653 B( 22-C , 26-C ) :  -0.1576
B( 22-C , 27-C ) :   0.2809 B( 22-C , 35-H ) :   0.1537 B( 22-C , 38-H ) :   0.2654
B( 23-C , 32-H ) :   0.8319 B( 23-C , 33-H ) :   1.0282 B( 23-C , 34-H ) :   1.0889
B( 24-C , 25-C ) :   1.1221 B( 24-C , 26-C ) :   0.2972 B( 24-C , 35-H ) :   0.8408
B( 24-C , 36-H ) :  -0.1222 B( 25-C , 26-C ) :   1.2263 B( 25-C , 27-C ) :  -0.1970
B( 25-C , 36-H ) :   0.7695 B( 26-C , 27-C ) :   0.9784 B( 26-C , 36-H ) :  -0.1716
B( 26-C , 37-H ) :   0.3431 B( 26-C , 38-H ) :  -0.1379 B( 27-C , 37-H ) :  -0.1131
B( 27-C , 38-H ) :   1.5672

MP2 TOTAL ENERGY:    -1865.092354991 Eh
Dispersion correction           -0.032707232
FINAL SINGLE POINT ENERGY     -1865.125062223915

DIPOLE MOMENT
-------------
                                X             Y             Z
Electronic contribution:    -22.33243      25.12032       6.01889
Nuclear contribution   :     27.00048     -27.30192      -9.19355
                        -----------------------------------------
Total Dipole Moment    :      4.66805      -2.18160      -3.17467
                        -----------------------------------------
Magnitude (a.u.)       :      6.05216
Magnitude (Debye)      :     15.38336

Rotational constants in cm-1:     0.014643     0.003032     0.002988
Rotational constants in MHz :   438.990488    90.894115    89.569855

                             ****ORCA TERMINATED NORMALLY****
TOTAL RUN TIME: 0 days 0 hours 17 minutes 2 seconds 434 msec
