                         Program Version 5.0.3 -  RELEASE  -
|  1> !PAL8
|  2> !RI-DSD-PBEP86 D3BJ aug-cc-pVTZ aug-cc-pVTZ/C TightSCF
|  3> %maxcore 3000
|  4>
|  5>
|  6> * xyz -1 1
|  7> C -1.6292035585  1.0300845909 -1.1946160025
|  8> C -2.8620880394  0.9554107093 -1.857030781
|  9> C -2.9640399057  0.2414215592 -3.0585315229
| 10> C -1.8647024503 -0.4221932872 -3.5966147242
| 11> C -0.6561542825 -0.3353449474 -2.9218559685
| 12> C -0.526557456  0.3891458359 -1.7408932925
| 13> S -1.3871660642  1.8710453877  0.4459516784
| 14> O -1.8286694582  3.2542762338  0.1705031641
| 15> O -2.2473217438  1.0421426039  1.3028755979
| 16> N  0.1238520693  1.7065058138  0.7906282742
| 17> H  0.5926959044  2.5541256324  0.4669873002
| 18> Cl -4.2612874135  1.7244912248 -1.201818805
| 19> Cl -4.4734059812  0.1357438547 -3.9230754186
| 20> S  0.7492215057 -1.2357399716 -3.5434272101
| 21> H -1.9508270952 -0.9900818524 -4.516671
| 22> H  0.4150618208  0.4696205201 -1.1995961894
| 23> O  0.3217168309 -1.9586253781 -4.7328622523
| 24> O  1.908797585 -0.3605121493 -3.5537671285
| 25> N  1.0886778711 -2.4026928344 -2.3925068568
| 26> H  0.2843146515 -3.0067157122 -2.2355611309
| 27> H  1.3940032097 -1.9745688336 -1.5195407314
| 28> *
| 29>
| 30>                          ****END OF INPUT****

CARTESIAN COORDINATES (ANGSTROEM)
---------------------------------
  C     -1.629204    1.030085   -1.194616
  C     -2.862088    0.955411   -1.857031
  C     -2.964040    0.241422   -3.058532
  C     -1.864702   -0.422193   -3.596615
  C     -0.656154   -0.335345   -2.921856
  C     -0.526557    0.389146   -1.740893
  S     -1.387166    1.871045    0.445952
  O     -1.828669    3.254276    0.170503
  O     -2.247322    1.042143    1.302876
  N      0.123852    1.706506    0.790628
  H      0.592696    2.554126    0.466987
  Cl    -4.261287    1.724491   -1.201819
  Cl    -4.473406    0.135744   -3.923075
  S      0.749222   -1.235740   -3.543427
  H     -1.950827   -0.990082   -4.516671
  H      0.415062    0.469621   -1.199596
  O      0.321717   -1.958625   -4.732862
  O      1.908798   -0.360512   -3.553767
  N      1.088678   -2.402693   -2.392507
  H      0.284315   -3.006716   -2.235561
  H      1.394003   -1.974569   -1.519541

 Total Charge           Charge          ....   -1
 Multiplicity           Mult            ....    1
 Number of Electrons    NEL             ....  154
 Basis Dimension        Dim             ....  867

ORBITAL ENERGIES
----------------

  NO   OCC          E(Eh)            E(eV)
   0   2.0000    -103.535433     -2817.3424
   1   2.0000    -103.514889     -2816.7833
   2   2.0000     -90.957975     -2475.0923
   3   2.0000     -90.870789     -2472.7199
   4   2.0000     -19.935820      -542.4812
   5   2.0000     -19.933119      -542.4077
   6   2.0000     -19.849062      -540.1204
   7   2.0000     -19.847818      -540.0866
   8   2.0000     -15.056237      -409.7010
   9   2.0000     -14.909780      -405.7158
  10   2.0000     -10.832589      -294.7697
  11   2.0000     -10.831610      -294.7431
  12   2.0000     -10.794492      -293.7331
  13   2.0000     -10.783876      -293.4442
  14   2.0000     -10.770587      -293.0826
  15   2.0000     -10.767839      -293.0078
  16   2.0000     -10.083243      -274.3790
  17   2.0000     -10.062723      -273.8206
  18   2.0000      -8.701158      -236.7705
  19   2.0000      -8.612182      -234.3494
  20   2.0000      -7.656336      -208.3395
  21   2.0000      -7.651937      -208.2198
  22   2.0000      -7.651779      -208.2155
  23   2.0000      -7.636031      -207.7870
  24   2.0000      -7.631390      -207.6607
  25   2.0000      -7.630877      -207.6467
  26   2.0000      -6.487318      -176.5289
  27   2.0000      -6.485707      -176.4851
  28   2.0000      -6.484490      -176.4520
  29   2.0000      -6.398940      -174.1240
  30   2.0000      -6.396484      -174.0572
  31   2.0000      -6.395547      -174.0317
  32   2.0000      -1.255109       -34.1533
  33   2.0000      -1.161219       -31.5984
  34   2.0000      -1.140147       -31.0250
  35   2.0000      -1.044484       -28.4219
  36   2.0000      -1.030195       -28.0330
  37   2.0000      -1.023443       -27.8493
  38   2.0000      -0.949846       -25.8466
  39   2.0000      -0.945425       -25.7263
  40   2.0000      -0.907194       -24.6860
  41   2.0000      -0.846350       -23.0304
  42   2.0000      -0.827276       -22.5113
  43   2.0000      -0.729181       -19.8420
  44   2.0000      -0.690926       -18.8011
  45   2.0000      -0.650581       -17.7032
  46   2.0000      -0.603554       -16.4235
  47   2.0000      -0.573987       -15.6190
  48   2.0000      -0.568991       -15.4830
  49   2.0000      -0.541750       -14.7418
  50   2.0000      -0.533375       -14.5139
  51   2.0000      -0.505264       -13.7489
  52   2.0000      -0.483878       -13.1670
  53   2.0000      -0.480362       -13.0713
  54   2.0000      -0.462254       -12.5786
  55   2.0000      -0.448351       -12.2002
  56   2.0000      -0.437932       -11.9167
  57   2.0000      -0.414914       -11.2904
  58   2.0000      -0.412925       -11.2363
  59   2.0000      -0.398035       -10.8311
  60   2.0000      -0.372378       -10.1329
  61   2.0000      -0.371691       -10.1142
  62   2.0000      -0.357367        -9.7244
  63   2.0000      -0.353076        -9.6077
  64   2.0000      -0.342999        -9.3335
  65   2.0000      -0.337670        -9.1885
  66   2.0000      -0.328825        -8.9478
  67   2.0000      -0.326549        -8.8858
  68   2.0000      -0.318921        -8.6783
  69   2.0000      -0.297626        -8.0988
  70   2.0000      -0.282743        -7.6938
  71   2.0000      -0.273077        -7.4308
  72   2.0000      -0.243941        -6.6380
  73   2.0000      -0.227172        -6.1817
  74   2.0000      -0.224742        -6.1155
  75   2.0000      -0.215788        -5.8719
  76   2.0000      -0.196330        -5.3424
  77   0.0000       0.091201         2.4817
  78   0.0000       0.101896         2.7727
  79   0.0000       0.112833         3.0703
  80   0.0000       0.116153         3.1607
  81   0.0000       0.124559         3.3894

MULLIKEN ATOMIC CHARGES
-----------------------
   0 C :    0.583129
   1 C :    0.237182
   2 C :    0.380135
   3 C :   -0.816678
   4 C :    0.497351
   5 C :   -0.663304
   6 S :    1.973672
   7 O :   -1.000870
   8 O :   -1.007724
   9 N :   -1.057369
  10 H :    0.081597
  11 Cl:   -0.423047
  12 Cl:   -0.480960
  13 S :    2.152494
  14 H :    0.420553
  15 H :    0.409729
  16 O :   -0.975567
  17 O :   -0.987620
  18 N :   -0.620728
  19 H :    0.147251
  20 H :    0.150775
Sum of atomic charges:   -1.0000000

LOEWDIN ATOMIC CHARGES
----------------------
   0 C :   -0.304684
   1 C :   -0.888471
   2 C :   -0.863903
   3 C :    0.038428
   4 C :   -0.274421
   5 C :    0.086981
   6 S :   -0.153361
   7 O :   -0.029665
   8 O :   -0.021737
   9 N :    0.294141
  10 H :   -0.571399
  11 Cl:    1.009936
  12 Cl:    0.943969
  13 S :    0.115500
  14 H :   -0.227232
  15 H :   -0.239552
  16 O :    0.059285
  17 O :    0.056799
  18 N :    0.687898
  19 H :   -0.357285
  20 H :   -0.361229

  Mayer bond orders larger than 0.100000
B(  0-C ,  1-C ) :   1.4975 B(  0-C ,  2-C ) :   0.1631 B(  0-C ,  3-C ) :  -0.2358
B(  0-C ,  4-C ) :   0.1499 B(  0-C ,  5-C ) :   1.0296 B(  0-C ,  6-S ) :   0.6130
B(  0-C ,  8-O ) :   0.1051 B(  0-C , 11-Cl) :   0.4660 B(  0-C , 15-H ) :   0.1407
B(  1-C ,  2-C ) :   1.2842 B(  1-C ,  3-C ) :   0.3054 B(  1-C ,  4-C ) :  -0.1356
B(  1-C ,  5-C ) :   0.2276 B(  1-C ,  6-S ) :   0.2555 B(  1-C , 11-Cl) :  -0.1162
B(  1-C , 12-Cl) :   0.4332 B(  2-C ,  3-C ) :   0.9600 B(  2-C ,  4-C ) :   0.2271
B(  2-C , 11-Cl) :   0.1442 B(  2-C , 12-Cl) :   0.3791 B(  3-C ,  4-C ) :   0.5357
B(  3-C ,  5-C ) :   0.2263 B(  3-C , 14-H ) :   0.8441 B(  3-C , 18-N ) :   0.1023
B(  4-C ,  5-C ) :   0.3805 B(  4-C , 12-Cl) :  -0.1914 B(  4-C , 13-S ) :   1.0096
B(  4-C , 16-O ) :   0.2149 B(  4-C , 17-O ) :   0.3832 B(  4-C , 18-N ) :   0.2670
B(  5-C , 13-S ) :  -0.1533 B(  5-C , 15-H ) :   0.6777 B(  5-C , 17-O ) :  -0.1321
B(  5-C , 18-N ) :  -0.2715 B(  6-S ,  7-O ) :   1.2801 B(  6-S ,  8-O ) :   1.3125
B(  6-S ,  9-N ) :   1.1935 B(  6-S , 10-H ) :   0.1246 B(  9-N , 10-H ) :   0.9632
B( 13-S , 16-O ) :   1.1438 B( 13-S , 17-O ) :   1.1862 B( 13-S , 18-N ) :   0.8311
B( 18-N , 19-H ) :   0.9499 B( 18-N , 20-H ) :   0.9305

MP2 TOTAL ENERGY:    -2356.866886092 Eh
Dispersion correction           -0.021653583
FINAL SINGLE POINT ENERGY     -2356.888539674958

DIPOLE MOMENT
-------------
                                X             Y             Z
Electronic contribution:    -16.29078       4.07303      -4.72299
Nuclear contribution   :     15.51824      -6.10183       2.35445
                        -----------------------------------------
Total Dipole Moment    :     -0.77254      -2.02880      -2.36854
                        -----------------------------------------
Magnitude (a.u.)       :      3.21291
Magnitude (Debye)      :      8.16658

Rotational constants in cm-1:     0.014905     0.009145     0.006098
Rotational constants in MHz :   446.830589   274.149915   182.822131

                             ****ORCA TERMINATED NORMALLY****
TOTAL RUN TIME: 0 days 0 hours 5 minutes 48 seconds 633 msec
