                         Program Version 5.0.3 -  RELEASE  -
|  1> !PAL8
|  2> !RI-DSD-PBEP86 D3BJ aug-cc-pVTZ aug-cc-pVTZ/C TightSCF
|  3> %maxcore 3000
|  4>
|  5>
|  6> * xyz -1 1
|  7> S -2.1506637984  1.3990420788 -0.9598575012
|  8> O -2.0556005461  2.8649381045 -1.1356913565
|  9> O -3.491663762  0.8576635464 -0.6294078306
| 10> N -0.9631843694  0.8532407184 -0.1004481716
| 11> H -1.2193495253 -0.1012090624  0.1598621913
| 12> C -1.8763571327  0.8542261314 -2.6964927111
| 13> N -1.8178767525 -0.6006607711 -2.8256461136
| 14> C -1.0982221992 -1.0465987317 -4.037773266
| 15> C -2.1825519116 -1.1288746394 -5.0832075421
| 16> C -3.3772061526 -1.1539445499 -4.3658732988
| 17> O -3.1799286493 -1.0590266909 -3.0279922008
| 18> C -2.1979775994 -1.2369341827 -6.4633560945
| 19> C -3.4307617584 -1.3747934759 -7.1158741459
| 20> C -4.6160819213 -1.4073840999 -6.3788133147
| 21> C -4.6117277327 -1.2962800093 -4.9850002464
| 22> H -0.8934805179  1.2592592008 -2.9478923864
| 23> H -2.6496570833  1.3000944094 -3.3364445012
| 24> H -0.2927056013 -0.3442965301 -4.2623303265
| 25> H -1.2723624174 -1.2179308199 -7.033674655
| 26> H -3.4643371792 -1.4536768348 -8.1985400401
| 27> H -5.5657056709 -1.509277746 -6.8974966243
| 28> H -5.5254716373 -1.3042193174 -4.4006785764
| 29> H -0.6594660821 -2.0357567283 -3.8520612876
| 30> *
| 31>
| 32>                          ****END OF INPUT****

CARTESIAN COORDINATES (ANGSTROEM)
---------------------------------
  S     -2.150664    1.399042   -0.959858
  O     -2.055601    2.864938   -1.135691
  O     -3.491664    0.857664   -0.629408
  N     -0.963184    0.853241   -0.100448
  H     -1.219350   -0.101209    0.159862
  C     -1.876357    0.854226   -2.696493
  N     -1.817877   -0.600661   -2.825646
  C     -1.098222   -1.046599   -4.037773
  C     -2.182552   -1.128875   -5.083208
  C     -3.377206   -1.153945   -4.365873
  O     -3.179929   -1.059027   -3.027992
  C     -2.197978   -1.236934   -6.463356
  C     -3.430762   -1.374793   -7.115874
  C     -4.616082   -1.407384   -6.378813
  C     -4.611728   -1.296280   -4.985000
  H     -0.893481    1.259259   -2.947892
  H     -2.649657    1.300094   -3.336445
  H     -0.292706   -0.344297   -4.262330
  H     -1.272362   -1.217931   -7.033675
  H     -3.464337   -1.453677   -8.198540
  H     -5.565706   -1.509278   -6.897497
  H     -5.525472   -1.304219   -4.400679
  H     -0.659466   -2.035757   -3.852061

 Total Charge           Charge          ....   -1
 Multiplicity           Mult            ....    1
 Number of Electrons    NEL             ....  112
 Basis Dimension        Dim             ....  855

ORBITAL ENERGIES
----------------

  NO   OCC          E(Eh)            E(eV)
   0   2.0000     -90.825501     -2471.4875
   1   2.0000     -19.969319      -543.3928
   2   2.0000     -19.810387      -539.0680
   3   2.0000     -19.809755      -539.0508
   4   2.0000     -15.046822      -409.4449
   5   2.0000     -14.870610      -404.6499
   6   2.0000     -10.803637      -293.9819
   7   2.0000     -10.777479      -293.2701
   8   2.0000     -10.764078      -292.9055
   9   2.0000     -10.762044      -292.8501
  10   2.0000     -10.753883      -292.6280
  11   2.0000     -10.753621      -292.6209
  12   2.0000     -10.752291      -292.5847
  13   2.0000     -10.735895      -292.1386
  14   2.0000      -8.567970      -233.1463
  15   2.0000      -6.353930      -172.8992
  16   2.0000      -6.352444      -172.8588
  17   2.0000      -6.351575      -172.8351
  18   2.0000      -1.223903       -33.3041
  19   2.0000      -1.118263       -30.4295
  20   2.0000      -1.002621       -27.2827
  21   2.0000      -0.968261       -26.3477
  22   2.0000      -0.958502       -26.0822
  23   2.0000      -0.866517       -23.5791
  24   2.0000      -0.855770       -23.2867
  25   2.0000      -0.830957       -22.6115
  26   2.0000      -0.763768       -20.7832
  27   2.0000      -0.682057       -18.5597
  28   2.0000      -0.661546       -18.0016
  29   2.0000      -0.648821       -17.6553
  30   2.0000      -0.560621       -15.2553
  31   2.0000      -0.548370       -14.9219
  32   2.0000      -0.519715       -14.1422
  33   2.0000      -0.505862       -13.7652
  34   2.0000      -0.488401       -13.2901
  35   2.0000      -0.469109       -12.7651
  36   2.0000      -0.445102       -12.1118
  37   2.0000      -0.441783       -12.0215
  38   2.0000      -0.428078       -11.6486
  39   2.0000      -0.419563       -11.4169
  40   2.0000      -0.407633       -11.0923
  41   2.0000      -0.385772       -10.4974
  42   2.0000      -0.377870       -10.2824
  43   2.0000      -0.370082       -10.0704
  44   2.0000      -0.368067       -10.0156
  45   2.0000      -0.347106        -9.4452
  46   2.0000      -0.338240        -9.2040
  47   2.0000      -0.275970        -7.5095
  48   2.0000      -0.254034        -6.9126
  49   2.0000      -0.240074        -6.5327
  50   2.0000      -0.232564        -6.3284
  51   2.0000      -0.225288        -6.1304
  52   2.0000      -0.200249        -5.4490
  53   2.0000      -0.192431        -5.2363
  54   2.0000      -0.177565        -4.8318
  55   2.0000      -0.150305        -4.0900
  56   0.0000       0.075964         2.0671
  57   0.0000       0.086016         2.3406
  58   0.0000       0.095294         2.5931
  59   0.0000       0.106143         2.8883
  60   0.0000       0.113158         3.0792

MULLIKEN ATOMIC CHARGES
-----------------------
   0 S :    2.060116
   1 O :   -1.033706
   2 O :   -1.027136
   3 N :   -1.105589
   4 H :    0.112259
   5 C :   -0.511865
   6 N :   -0.098202
   7 C :   -0.313674
   8 C :    0.846132
   9 C :    0.761076
  10 O :   -0.897887
  11 C :   -0.720606
  12 C :   -0.592154
  13 C :   -0.322945
  14 C :   -1.176602
  15 H :    0.347512
  16 H :    0.330439
  17 H :    0.319211
  18 H :    0.134211
  19 H :    0.625020
  20 H :    0.372573
  21 H :    0.588050
  22 H :    0.303768
Sum of atomic charges:   -1.0000000

LOEWDIN ATOMIC CHARGES
----------------------
   0 S :   -0.157407
   1 O :   -0.040236
   2 O :   -0.038600
   3 N :    0.265578
   4 H :   -0.602025
   5 C :    0.001310
   6 N :    0.082966
   7 C :    0.169596
   8 C :   -0.109002
   9 C :   -0.423416
  10 O :    0.528445
  11 C :    0.210845
  12 C :    0.169780
  13 C :    0.167013
  14 C :    0.227755
  15 H :   -0.219588
  16 H :   -0.192215
  17 H :   -0.155875
  18 H :   -0.178080
  19 H :   -0.198489
  20 H :   -0.189712
  21 H :   -0.177261
  22 H :   -0.141383

  Mayer bond orders larger than 0.100000
B(  0-S ,  1-O ) :   1.1765 B(  0-S ,  2-O ) :   1.1463 B(  0-S ,  3-N ) :   1.2227
B(  0-S ,  4-H ) :   0.1148 B(  0-S ,  5-C ) :   0.9135 B(  3-N ,  4-H ) :   0.9279
B(  5-C ,  6-N ) :   0.9418 B(  5-C , 10-O ) :   0.1180 B(  5-C , 15-H ) :   0.8388
B(  5-C , 16-H ) :   0.8518 B(  6-N ,  7-C ) :   0.6778 B(  6-N ,  9-C ) :  -0.2105
B(  6-N , 10-O ) :   0.6743 B(  7-C ,  8-C ) :   0.5637 B(  7-C , 17-H ) :   1.0093
B(  7-C , 22-H ) :   0.9728 B(  8-C ,  9-C ) :   1.3885 B(  8-C , 11-C ) :   0.8170
B(  8-C , 14-C ) :   0.1003 B(  8-C , 18-H ) :  -0.2028 B(  9-C , 10-O ) :   0.7435
B(  9-C , 11-C ) :  -0.4099 B(  9-C , 13-C ) :  -0.4655 B(  9-C , 14-C ) :   0.6594
B(  9-C , 18-H ) :   0.2404 B(  9-C , 20-H ) :   0.1520 B( 10-O , 14-C ) :   0.1366
B( 11-C , 12-C ) :   1.1946 B( 11-C , 13-C ) :  -0.3141 B( 11-C , 14-C ) :   0.1088
B( 11-C , 18-H ) :   1.3594 B( 12-C , 13-C ) :   1.2040 B( 12-C , 14-C ) :   0.3213
B( 12-C , 19-H ) :   0.4913 B( 12-C , 20-H ) :  -0.2149 B( 13-C , 14-C ) :   1.3426
B( 13-C , 20-H ) :   0.8523 B( 14-C , 21-H ) :   0.3690

MP2 TOTAL ENERGY:    -1042.440709822 Eh
Dispersion correction           -0.016654632
FINAL SINGLE POINT ENERGY     -1042.457364454332

DIPOLE MOMENT
-------------
                                X             Y             Z
Electronic contribution:     -1.88447       1.85932       6.09097
Nuclear contribution   :      1.56212      -4.75399     -11.15748
                        -----------------------------------------
Total Dipole Moment    :     -0.32234      -2.89466      -5.06651
                        -----------------------------------------
Magnitude (a.u.)       :      5.84402
Magnitude (Debye)      :     14.85431

Rotational constants in cm-1:     0.056261     0.010976     0.010324
Rotational constants in MHz :  1686.653378   329.039865   309.517874

                             ****ORCA TERMINATED NORMALLY****
TOTAL RUN TIME: 0 days 0 hours 3 minutes 39 seconds 593 msec
