                         Program Version 5.0.3 -  RELEASE  -
|  1> !PAL8
|  2> !RI-DSD-PBEP86 D3BJ aug-cc-pVTZ aug-cc-pVTZ/C TightSCF
|  3> %maxcore 5000
|  4>
|  5> * xyz -1 1
|  6> C -1.4041689012  0.677189943 -0.9062248446
|  7> C -2.592062363  0.7671882575 -1.6297043638
|  8> H -3.5329175195  0.7571633808 -1.0845885124
|  9> C -2.5682858276  0.8832030106 -3.0160134573
| 10> H -3.4991062798  0.9602880083 -3.5764194728
| 11> C -1.348570604  0.9105341421 -3.7030081739
| 12> N -1.3225850949  1.0772215231 -5.1097493123
| 13> C -0.159730526  0.8334545265 -2.9735841493
| 14> H  0.793679379  0.8703947978 -3.4992874052
| 15> C -0.1900842596  0.7128819368 -1.5836755103
| 16> H  0.7273038037  0.651617636 -1.0049364329
| 17> S -1.4737776403  0.4581470015  0.9015496952
| 18> O -1.8681337271 -0.9574499034  1.0440694142
| 19> O -0.0860522301  0.7992676943  1.3142641251
| 20> N -2.5947584062  1.4003704873  1.4581473965
| 21> H -2.16833617  2.3246201619  1.5554350145
| 22> H -2.14683953  0.6931654941 -5.5591714114
| 23> H -0.4917481036  0.6755749018 -5.5307255997
| 24> *
| 25>
| 26>
| 27>
| 28>                          ****END OF INPUT****

CARTESIAN COORDINATES (ANGSTROEM)
---------------------------------
  C     -1.404169    0.677190   -0.906225
  C     -2.592062    0.767188   -1.629704
  H     -3.532918    0.757163   -1.084589
  C     -2.568286    0.883203   -3.016013
  H     -3.499106    0.960288   -3.576419
  C     -1.348571    0.910534   -3.703008
  N     -1.322585    1.077222   -5.109749
  C     -0.159731    0.833455   -2.973584
  H      0.793679    0.870395   -3.499287
  C     -0.190084    0.712882   -1.583676
  H      0.727304    0.651618   -1.004936
  S     -1.473778    0.458147    0.901550
  O     -1.868134   -0.957450    1.044069
  O     -0.086052    0.799268    1.314264
  N     -2.594758    1.400370    1.458147
  H     -2.168336    2.324620    1.555435
  H     -2.146840    0.693165   -5.559171
  H     -0.491748    0.675575   -5.530726

 Total Charge           Charge          ....   -1
 Multiplicity           Mult            ....    1
 Number of Electrons    NEL             ....   90
 Basis Dimension        Dim             ....  671

ORBITAL ENERGIES
----------------

  NO   OCC          E(Eh)            E(eV)
   0   2.0000     -90.831591     -2471.6532
   1   2.0000     -19.814194      -539.1716
   2   2.0000     -19.811146      -539.0887
   3   2.0000     -15.007724      -408.3809
   4   2.0000     -14.873010      -404.7152
   5   2.0000     -10.770150      -293.0707
   6   2.0000     -10.720558      -291.7212
   7   2.0000     -10.720121      -291.7093
   8   2.0000     -10.718886      -291.6757
   9   2.0000     -10.718083      -291.6539
  10   2.0000     -10.709368      -291.4167
  11   2.0000      -8.573438      -233.2951
  12   2.0000      -6.359565      -173.0526
  13   2.0000      -6.357959      -173.0089
  14   2.0000      -6.357098      -172.9854
  15   2.0000      -1.121428       -30.5156
  16   2.0000      -1.014897       -27.6168
  17   2.0000      -1.005435       -27.3593
  18   2.0000      -0.913840       -24.8669
  19   2.0000      -0.865942       -23.5635
  20   2.0000      -0.804211       -21.8837
  21   2.0000      -0.784883       -21.3578
  22   2.0000      -0.644142       -17.5280
  23   2.0000      -0.636459       -17.3189
  24   2.0000      -0.562290       -15.3007
  25   2.0000      -0.522168       -14.2089
  26   2.0000      -0.520346       -14.1593
  27   2.0000      -0.467289       -12.7156
  28   2.0000      -0.433683       -11.8011
  29   2.0000      -0.431823       -11.7505
  30   2.0000      -0.412458       -11.2236
  31   2.0000      -0.407243       -11.0817
  32   2.0000      -0.385931       -10.5017
  33   2.0000      -0.375601       -10.2206
  34   2.0000      -0.364767        -9.9258
  35   2.0000      -0.321826        -8.7573
  36   2.0000      -0.300261        -8.1705
  37   2.0000      -0.278875        -7.5886
  38   2.0000      -0.246514        -6.7080
  39   2.0000      -0.233053        -6.3417
  40   2.0000      -0.210309        -5.7228
  41   2.0000      -0.198771        -5.4088
  42   2.0000      -0.183175        -4.9844
  43   2.0000      -0.170858        -4.6493
  44   2.0000      -0.142450        -3.8763
  45   0.0000       0.081723         2.2238
  46   0.0000       0.096228         2.6185
  47   0.0000       0.111325         3.0293
  48   0.0000       0.123552         3.3620
  49   0.0000       0.132152         3.5960

MULLIKEN ATOMIC CHARGES
-----------------------
   0 C :    1.057983
   1 C :   -0.664531
   2 H :    0.541065
   3 C :   -0.850798
   4 H :    0.384200
   5 C :    1.176507
   6 N :   -0.768685
   7 C :   -0.819746
   8 H :    0.461881
   9 C :   -0.952552
  10 H :    0.418286
  11 S :    1.901362
  12 O :   -1.016154
  13 O :   -1.013835
  14 N :   -1.076893
  15 H :    0.094544
  16 H :    0.063525
  17 H :    0.063841
Sum of atomic charges:   -1.0000000

LOEWDIN ATOMIC CHARGES
----------------------
   0 C :   -0.254890
   1 C :    0.138559
   2 H :   -0.193557
   3 C :    0.195037
   4 H :   -0.188844
   5 C :   -0.273596
   6 N :    0.826709
   7 C :    0.192848
   8 H :   -0.189688
   9 C :    0.139332
  10 H :   -0.214901
  11 S :   -0.145710
  12 O :   -0.032879
  13 O :   -0.023880
  14 N :    0.269721
  15 H :   -0.594466
  16 H :   -0.324805
  17 H :   -0.324989

  Mayer bond orders larger than 0.100000
B(  0-C ,  1-C ) :   0.9708 B(  0-C ,  2-H ) :   0.1195 B(  0-C ,  3-C ) :  -0.1211
B(  0-C ,  9-C ) :   0.6908 B(  0-C , 11-S ) :   0.8569 B(  0-C , 13-O ) :   0.1805
B(  1-C ,  2-H ) :   0.4950 B(  1-C ,  3-C ) :   1.1925 B(  1-C ,  5-C ) :  -0.1055
B(  1-C ,  9-C ) :   0.1780 B(  3-C ,  4-H ) :   0.8607 B(  3-C ,  5-C ) :   1.0142
B(  3-C ,  7-C ) :   0.1273 B(  5-C ,  6-N ) :   0.3752 B(  5-C ,  7-C ) :   1.0822
B(  6-N , 16-H ) :   1.0865 B(  6-N , 17-H ) :   1.0800 B(  7-C ,  8-H ) :   0.6910
B(  7-C ,  9-C ) :   1.3068 B(  9-C , 10-H ) :   0.7628 B(  9-C , 13-O ) :  -0.1002
B( 11-S , 12-O ) :   1.3038 B( 11-S , 13-O ) :   1.1889 B( 11-S , 14-N ) :   1.2146
B( 11-S , 15-H ) :   0.1178 B( 14-N , 15-H ) :   0.9493

MP2 TOTAL ENERGY:     -890.072401961 Eh
Dispersion correction           -0.013368132
FINAL SINGLE POINT ENERGY      -890.085770092902

DIPOLE MOMENT
-------------
                                X             Y             Z
Electronic contribution:      0.69372      -1.78093       6.79186
Nuclear contribution   :     -0.34836       2.22447     -11.05034
                        -----------------------------------------
Total Dipole Moment    :      0.34536       0.44355      -4.25848
                        -----------------------------------------
Magnitude (a.u.)       :      4.29542
Magnitude (Debye)      :     10.91810

Rotational constants in cm-1:     0.087795     0.018685     0.017002
Rotational constants in MHz :  2632.035395   560.147895   509.692438

                             ****ORCA TERMINATED NORMALLY****
TOTAL RUN TIME: 0 days 0 hours 2 minutes 9 seconds 802 msec
