                         Program Version 5.0.3 -  RELEASE  -
|  1> !PAL8
|  2> !RI-DSD-PBEP86 D3BJ aug-cc-pVTZ aug-cc-pVTZ/C TightSCF
|  3> %maxcore 3000
|  4>
|  5>
|  6> * xyz -1 1
|  7> C -1.6490733346  1.2455883315 -1.2427053539
|  8> C -2.7963340749  1.3408973428 -2.0776533119
|  9> C -2.8608207166  0.6327667643 -3.251463007
| 10> C -1.7859763555 -0.1968841683 -3.6509575789
| 11> C -0.6477851949 -0.2799374735 -2.8908347093
| 12> C -0.5435252336  0.4470491092 -1.6634372337
| 13> S  0.7187143186 -1.3540089666 -3.4824537296
| 14> O  1.8550219363 -0.3990779984 -3.5842855679
| 15> O  0.8197201929 -2.3522506 -2.3994728743
| 16> N  0.2766259118 -1.995974991 -4.8361822903
| 17> H  0.6060846016 -1.3657402556 -5.5696341411
| 18> C  0.6336390049  0.414394675 -0.8606890656
| 19> C  0.6955821652  1.1440894005  0.2972842444
| 20> C -0.4113489188  1.9088686418  0.7411177495
| 21> C -1.5721370411  1.9543644143  0.0034064362
| 22> N -2.7274618099  2.6827166354  0.431140221
| 23> C -3.7743978352  1.8156280853  0.95951769
| 24> C -2.4743691727  3.785651087  1.334335718
| 25> H -3.6046223014  2.002449204 -1.780823168
| 26> H -3.7401216318  0.7145034517 -3.8866116947
| 27> H -1.8306261637 -0.7839453307 -4.5646158748
| 28> H  1.4740320216 -0.1842895356 -1.1917481126
| 29> H  1.6000488737  1.1264134457  0.8997414884
| 30> H -0.3383879719  2.4487650061  1.6810217241
| 31> H -3.9497770029  0.9793695583  0.2800763761
| 32> H -4.7040678634  2.3876057166  1.0627854444
| 33> H -3.500901183  1.4059237352  1.9491752132
| 34> H -1.6782751145  4.4176135952  0.9322526353
| 35> H -2.1866687423  3.461074218  2.3522458987
| 36> H -3.3881373639  4.3837809021  1.4233808744
| 37> *
| 38>
| 39>                          ****END OF INPUT****

CARTESIAN COORDINATES (ANGSTROEM)
---------------------------------
  C     -1.649073    1.245588   -1.242705
  C     -2.796334    1.340897   -2.077653
  C     -2.860821    0.632767   -3.251463
  C     -1.785976   -0.196884   -3.650958
  C     -0.647785   -0.279937   -2.890835
  C     -0.543525    0.447049   -1.663437
  S      0.718714   -1.354009   -3.482454
  O      1.855022   -0.399078   -3.584286
  O      0.819720   -2.352251   -2.399473
  N      0.276626   -1.995975   -4.836182
  H      0.606085   -1.365740   -5.569634
  C      0.633639    0.414395   -0.860689
  C      0.695582    1.144089    0.297284
  C     -0.411349    1.908869    0.741118
  C     -1.572137    1.954364    0.003406
  N     -2.727462    2.682717    0.431140
  C     -3.774398    1.815628    0.959518
  C     -2.474369    3.785651    1.334336
  H     -3.604622    2.002449   -1.780823
  H     -3.740122    0.714503   -3.886612
  H     -1.830626   -0.783945   -4.564616
  H      1.474032   -0.184290   -1.191748
  H      1.600049    1.126413    0.899741
  H     -0.338388    2.448765    1.681022
  H     -3.949777    0.979370    0.280076
  H     -4.704068    2.387606    1.062785
  H     -3.500901    1.405924    1.949175
  H     -1.678275    4.417614    0.932253
  H     -2.186669    3.461074    2.352246
  H     -3.388137    4.383781    1.423381

 Total Charge           Charge          ....   -1
 Multiplicity           Mult            ....    1
 Number of Electrons    NEL             ....  132
 Basis Dimension        Dim             .... 1085

ORBITAL ENERGIES
----------------

  NO   OCC          E(Eh)            E(eV)
   0   2.0000     -90.841826     -2471.9317
   1   2.0000     -19.822676      -539.4024
   2   2.0000     -19.821217      -539.3627
   3   2.0000     -15.012522      -408.5115
   4   2.0000     -14.883372      -404.9971
   5   2.0000     -10.773770      -293.1692
   6   2.0000     -10.770560      -293.0818
   7   2.0000     -10.770186      -293.0717
   8   2.0000     -10.738253      -292.2027
   9   2.0000     -10.736255      -292.1483
  10   2.0000     -10.732641      -292.0500
  11   2.0000     -10.730921      -292.0032
  12   2.0000     -10.728683      -291.9423
  13   2.0000     -10.727327      -291.9054
  14   2.0000     -10.727149      -291.9006
  15   2.0000     -10.716202      -291.6027
  16   2.0000     -10.716109      -291.6002
  17   2.0000      -8.583753      -233.5758
  18   2.0000      -6.369804      -173.3312
  19   2.0000      -6.368396      -173.2929
  20   2.0000      -6.367335      -173.2640
  21   2.0000      -1.132193       -30.8085
  22   2.0000      -1.052487       -28.6396
  23   2.0000      -1.014587       -27.6083
  24   2.0000      -0.951612       -25.8947
  25   2.0000      -0.897856       -24.4319
  26   2.0000      -0.878392       -23.9023
  27   2.0000      -0.837195       -22.7812
  28   2.0000      -0.807175       -21.9643
  29   2.0000      -0.789002       -21.4698
  30   2.0000      -0.780613       -21.2416
  31   2.0000      -0.709067       -19.2947
  32   2.0000      -0.660655       -17.9773
  33   2.0000      -0.650281       -17.6950
  34   2.0000      -0.616516       -16.7762
  35   2.0000      -0.566731       -15.4215
  36   2.0000      -0.532806       -14.4984
  37   2.0000      -0.518552       -14.1105
  38   2.0000      -0.511302       -13.9132
  39   2.0000      -0.488519       -13.2933
  40   2.0000      -0.482483       -13.1290
  41   2.0000      -0.471856       -12.8398
  42   2.0000      -0.442388       -12.0380
  43   2.0000      -0.439489       -11.9591
  44   2.0000      -0.423445       -11.5225
  45   2.0000      -0.415846       -11.3157
  46   2.0000      -0.412900       -11.2356
  47   2.0000      -0.401742       -10.9320
  48   2.0000      -0.396665       -10.7938
  49   2.0000      -0.385967       -10.5027
  50   2.0000      -0.382971       -10.4212
  51   2.0000      -0.372987       -10.1495
  52   2.0000      -0.368159       -10.0181
  53   2.0000      -0.334282        -9.0963
  54   2.0000      -0.325170        -8.8483
  55   2.0000      -0.304207        -8.2779
  56   2.0000      -0.290053        -7.8928
  57   2.0000      -0.270021        -7.3477
  58   2.0000      -0.251984        -6.8568
  59   2.0000      -0.243047        -6.6136
  60   2.0000      -0.216927        -5.9029
  61   2.0000      -0.206730        -5.6254
  62   2.0000      -0.190692        -5.1890
  63   2.0000      -0.190373        -5.1803
  64   2.0000      -0.168213        -4.5773
  65   2.0000      -0.151076        -4.1110
  66   0.0000       0.075720         2.0605
  67   0.0000       0.088353         2.4042
  68   0.0000       0.092605         2.5199
  69   0.0000       0.096773         2.6333
  70   0.0000       0.104920         2.8550

MULLIKEN ATOMIC CHARGES
-----------------------
   0 C :    1.603495
   1 C :   -1.051106
   2 C :   -0.979376
   3 C :   -0.762852
   4 C :    0.565831
   5 C :    0.834173
   6 S :    2.246165
   7 O :   -1.059159
   8 O :   -1.082869
   9 N :   -1.219837
  10 H :    0.092577
  11 C :   -1.058692
  12 C :   -0.648420
  13 C :   -0.643279
  14 C :    0.954676
  15 N :   -0.135904
  16 C :   -1.115690
  17 C :   -1.241959
  18 H :    0.042839
  19 H :    0.627058
  20 H :    0.259552
  21 H :   -0.072532
  22 H :    0.607072
  23 H :    0.197768
  24 H :    0.437631
  25 H :    0.329623
  26 H :    0.274274
  27 H :    0.372172
  28 H :    0.317990
  29 H :    0.308781
Sum of atomic charges:   -1.0000000

LOEWDIN ATOMIC CHARGES
----------------------
   0 C :   -0.089217
   1 C :    0.199688
   2 C :    0.194551
   3 C :    0.148724
   4 C :   -0.189879
   5 C :   -0.127732
   6 S :   -0.113587
   7 O :   -0.004239
   8 O :   -0.005363
   9 N :    0.286912
  10 H :   -0.583352
  11 C :    0.206371
  12 C :    0.203372
  13 C :    0.208106
  14 C :   -0.218396
  15 N :    0.232676
  16 C :    0.447943
  17 C :    0.420864
  18 H :   -0.198737
  19 H :   -0.188630
  20 H :   -0.230582
  21 H :   -0.241886
  22 H :   -0.187185
  23 H :   -0.200696
  24 H :   -0.178392
  25 H :   -0.159725
  26 H :   -0.145270
  27 H :   -0.159284
  28 H :   -0.162041
  29 H :   -0.165014

  Mayer bond orders larger than 0.100000
B(  0-C ,  1-C ) :  -0.3516 B(  0-C ,  2-C ) :   0.1520 B(  0-C ,  3-C ) :  -0.3958
B(  0-C ,  4-C ) :   0.5110 B(  0-C ,  5-C ) :  -0.9393 B(  0-C , 11-C ) :  -0.3905
B(  0-C , 13-C ) :   0.4713 B(  0-C , 14-C ) :  -0.1748 B(  0-C , 16-C ) :   0.1073
B(  0-C , 18-H ) :  -0.2739 B(  0-C , 22-H ) :  -0.1232 B(  0-C , 23-H ) :   0.4804
B(  1-C ,  2-C ) :   1.2383 B(  1-C ,  3-C ) :   0.1582 B(  1-C ,  5-C ) :  -0.5497
B(  1-C , 13-C ) :   0.1235 B(  1-C , 14-C ) :   0.6349 B(  1-C , 18-H ) :   1.5661
B(  1-C , 20-H ) :   0.1053 B(  2-C ,  3-C ) :   1.2521 B(  2-C ,  4-C ) :   0.2834
B(  2-C ,  5-C ) :  -0.3084 B(  2-C ,  9-N ) :  -0.2212 B(  2-C , 18-H ) :  -0.1493
B(  2-C , 19-H ) :   0.4569 B(  2-C , 20-H ) :  -0.1936 B(  3-C ,  4-C ) :   0.6783
B(  3-C ,  5-C ) :   0.3506 B(  3-C ,  7-O ) :  -0.2238 B(  3-C ,  9-N ) :  -0.4095
B(  3-C , 13-C ) :  -0.1224 B(  3-C , 14-C ) :   0.1489 B(  3-C , 20-H ) :   0.9979
B(  4-C ,  5-C ) :   0.8064 B(  4-C ,  6-S ) :   0.7219 B(  4-C ,  8-O ) :   0.3447
B(  4-C ,  9-N ) :   0.3424 B(  4-C , 11-C ) :   0.5480 B(  4-C , 12-C ) :  -0.1624
B(  4-C , 13-C ) :   0.1546 B(  4-C , 18-H ) :  -0.1248 B(  5-C ,  6-S ) :   0.3251
B(  5-C ,  7-O ) :   0.1158 B(  5-C ,  8-O ) :  -0.1247 B(  5-C ,  9-N ) :   0.3178
B(  5-C , 12-C ) :   0.5112 B(  5-C , 13-C ) :  -0.5023 B(  5-C , 14-C ) :   0.3250
B(  5-C , 15-N ) :   0.2269 B(  5-C , 18-H ) :   0.2751 B(  5-C , 20-H ) :   0.1885
B(  5-C , 23-H ) :  -0.1063 B(  6-S ,  7-O ) :   1.2412 B(  6-S ,  8-O ) :   1.1358
B(  6-S ,  9-N ) :   0.8708 B(  6-S , 10-H ) :   0.1352 B(  6-S , 11-C ) :  -0.1376
B(  9-N , 10-H ) :   0.9560 B(  9-N , 20-H ) :   0.1259 B( 11-C , 12-C ) :   1.5119
B( 11-C , 21-H ) :   2.0439 B( 11-C , 23-H ) :   0.1051 B( 12-C , 13-C ) :   0.6524
B( 12-C , 21-H ) :  -0.1747 B( 12-C , 22-H ) :   0.4445 B( 12-C , 23-H ) :  -0.2726
B( 13-C , 14-C ) :   0.4635 B( 13-C , 15-N ) :  -0.6505 B( 13-C , 17-C ) :  -0.1466
B( 13-C , 23-H ) :   1.1978 B( 14-C , 15-N ) :   0.3752 B( 14-C , 16-C ) :  -0.1914
B( 14-C , 17-C ) :  -0.1191 B( 14-C , 19-H ) :   0.1002 B( 14-C , 22-H ) :   0.1330
B( 14-C , 23-H ) :  -0.5375 B( 15-N , 16-C ) :   1.0446 B( 15-N , 17-C ) :   1.1811
B( 16-C , 24-H ) :   0.8034 B( 16-C , 25-H ) :   0.9147 B( 16-C , 26-H ) :   0.9611
B( 17-C , 27-H ) :   0.9213 B( 17-C , 28-H ) :   0.9381 B( 17-C , 29-H ) :   0.9290

MP2 TOTAL ENERGY:    -1121.954578529 Eh
Dispersion correction           -0.024177737
FINAL SINGLE POINT ENERGY     -1121.978756265903

DIPOLE MOMENT
-------------
                                X             Y             Z
Electronic contribution:     10.91048     -10.54575     -11.81555
Nuclear contribution   :    -13.86434      14.11277      14.69998
                        -----------------------------------------
Total Dipole Moment    :     -2.95385       3.56703       2.88443
                        -----------------------------------------
Magnitude (a.u.)       :      5.45608
Magnitude (Debye)      :     13.86826

Rotational constants in cm-1:     0.032953     0.008921     0.007566
Rotational constants in MHz :   987.917291   267.439675   226.817184

                             ****ORCA TERMINATED NORMALLY****
TOTAL RUN TIME: 0 days 0 hours 8 minutes 28 seconds 803 msec
