                         Program Version 5.0.3 -  RELEASE  -
|  1> !PAL8
|  2> !RI-DSD-PBEP86 D3BJ aug-cc-pVTZ aug-cc-pVTZ/C TightSCF
|  3> %maxcore 5000
|  4>
|  5> * xyz -1 1
|  6> C -1.3373556113  0.69523166 -0.8241522992
|  7> C -2.5217288973  0.7599052334 -1.5526223648
|  8> H -3.46571048  0.7029000404 -1.0174466837
|  9> C -2.4822312338  0.9061978565 -2.9391279885
| 10> H -3.4129339858  0.9580658913 -3.5027720474
| 11> C -1.2654758204  0.9929167855 -3.6211761179
| 12> C -1.2180256949  1.166949327 -5.1205590404
| 13> C -0.0835121022  0.9327786169 -2.8745717842
| 14> H  0.8749836511  1.008833564 -3.3878658442
| 15> C -0.1155655637  0.7848201339 -1.4896175456
| 16> H  0.7995872036  0.7573566615 -0.9039379964
| 17> S -1.3914230059  0.4002413312  0.9740803429
| 18> O -0.1122464005  1.0026029163  1.4330533847
| 19> O -2.6335182026  1.0865449184  1.37816055
| 20> N -1.512723094 -1.1451278519  1.2024233352
| 21> H -0.5598320653 -1.5134670603  1.1659978833
| 22> H -0.5908159189  0.4014178196 -5.5919865975
| 23> H -2.2193242107  1.0956672197 -5.5574145633
| 24> H -0.8027395677  2.1439059365 -5.3962646233
| 25> *
| 26>
| 27>
| 28>
| 29>                          ****END OF INPUT****

CARTESIAN COORDINATES (ANGSTROEM)
---------------------------------
  C     -1.337356    0.695232   -0.824152
  C     -2.521729    0.759905   -1.552622
  H     -3.465710    0.702900   -1.017447
  C     -2.482231    0.906198   -2.939128
  H     -3.412934    0.958066   -3.502772
  C     -1.265476    0.992917   -3.621176
  C     -1.218026    1.166949   -5.120559
  C     -0.083512    0.932779   -2.874572
  H      0.874984    1.008834   -3.387866
  C     -0.115566    0.784820   -1.489618
  H      0.799587    0.757357   -0.903938
  S     -1.391423    0.400241    0.974080
  O     -0.112246    1.002603    1.433053
  O     -2.633518    1.086545    1.378161
  N     -1.512723   -1.145128    1.202423
  H     -0.559832   -1.513467    1.165998
  H     -0.590816    0.401418   -5.591987
  H     -2.219324    1.095667   -5.557415
  H     -0.802740    2.143906   -5.396265

 Total Charge           Charge          ....   -1
 Multiplicity           Mult            ....    1
 Number of Electrons    NEL             ....   90
 Basis Dimension        Dim             ....  694

ORBITAL ENERGIES
----------------

  NO   OCC          E(Eh)            E(eV)
   0   2.0000     -90.834556     -2471.7339
   1   2.0000     -19.817079      -539.2501
   2   2.0000     -19.815542      -539.2083
   3   2.0000     -14.875244      -404.7760
   4   2.0000     -10.738443      -292.2079
   5   2.0000     -10.736598      -292.1577
   6   2.0000     -10.722969      -291.7868
   7   2.0000     -10.722908      -291.7852
   8   2.0000     -10.717936      -291.6499
   9   2.0000     -10.716993      -291.6242
  10   2.0000     -10.715734      -291.5899
  11   2.0000      -8.576451      -233.3771
  12   2.0000      -6.362664      -173.1369
  13   2.0000      -6.360982      -173.0911
  14   2.0000      -6.360026      -173.0651
  15   2.0000      -1.125348       -30.6223
  16   2.0000      -1.010294       -27.4915
  17   2.0000      -0.935743       -25.4629
  18   2.0000      -0.868743       -23.6397
  19   2.0000      -0.839247       -22.8371
  20   2.0000      -0.802463       -21.8361
  21   2.0000      -0.744718       -20.2648
  22   2.0000      -0.635390       -17.2898
  23   2.0000      -0.624017       -16.9804
  24   2.0000      -0.562734       -15.3128
  25   2.0000      -0.497293       -13.5320
  26   2.0000      -0.467628       -12.7248
  27   2.0000      -0.450994       -12.2722
  28   2.0000      -0.430505       -11.7146
  29   2.0000      -0.424742       -11.5578
  30   2.0000      -0.412725       -11.2308
  31   2.0000      -0.410161       -11.1611
  32   2.0000      -0.391692       -10.6585
  33   2.0000      -0.376997       -10.2586
  34   2.0000      -0.343278        -9.3411
  35   2.0000      -0.334226        -9.0947
  36   2.0000      -0.318947        -8.6790
  37   2.0000      -0.283124        -7.7042
  38   2.0000      -0.250360        -6.8126
  39   2.0000      -0.234867        -6.3911
  40   2.0000      -0.219216        -5.9652
  41   2.0000      -0.196956        -5.3594
  42   2.0000      -0.192446        -5.2367
  43   2.0000      -0.184675        -5.0253
  44   2.0000      -0.143323        -3.9000
  45   0.0000       0.084221         2.2918
  46   0.0000       0.097752         2.6600
  47   0.0000       0.104364         2.8399
  48   0.0000       0.107577         2.9273
  49   0.0000       0.122398         3.3306

MULLIKEN ATOMIC CHARGES
-----------------------
   0 C :    1.039555
   1 C :   -0.832489
   2 H :    0.479677
   3 C :   -0.704486
   4 H :    0.189807
   5 C :    1.310954
   6 C :   -0.982830
   7 C :   -0.966168
   8 H :    0.284452
   9 C :   -0.924005
  10 H :    0.425887
  11 S :    1.887412
  12 O :   -1.016353
  13 O :   -1.010488
  14 N :   -1.080684
  15 H :    0.115069
  16 H :    0.278291
  17 H :    0.216072
  18 H :    0.290326
Sum of atomic charges:   -1.0000000

LOEWDIN ATOMIC CHARGES
----------------------
   0 C :   -0.248372
   1 C :    0.149483
   2 H :   -0.201603
   3 C :    0.192944
   4 H :   -0.188124
   5 C :   -0.151485
   6 C :    0.551331
   7 C :    0.188698
   8 H :   -0.182414
   9 C :    0.145598
  10 H :   -0.209456
  11 S :   -0.142126
  12 O :   -0.024255
  13 O :   -0.019619
  14 N :    0.270402
  15 H :   -0.600449
  16 H :   -0.173789
  17 H :   -0.185684
  18 H :   -0.171078

  Mayer bond orders larger than 0.100000
B(  0-C ,  1-C ) :   0.9054 B(  0-C ,  7-C ) :  -0.1759 B(  0-C ,  9-C ) :   0.7795
B(  0-C , 11-S ) :   0.9002 B(  0-C , 12-O ) :   0.1374 B(  0-C , 14-N ) :   0.1872
B(  1-C ,  2-H ) :   0.6413 B(  1-C ,  3-C ) :   1.2047 B(  1-C ,  5-C ) :   0.1319
B(  3-C ,  4-H ) :   1.2311 B(  3-C ,  5-C ) :   0.7559 B(  3-C ,  7-C ) :  -0.1707
B(  4-H ,  5-C ) :  -0.1149 B(  5-C ,  6-C ) :   0.2626 B(  5-C ,  7-C ) :   0.7803
B(  5-C ,  9-C ) :   0.1409 B(  5-C , 16-H ) :  -0.1196 B(  5-C , 18-H ) :  -0.1018
B(  6-C ,  7-C ) :   0.2398 B(  6-C , 16-H ) :   0.9970 B(  6-C , 17-H ) :   1.0473
B(  6-C , 18-H ) :   0.9862 B(  7-C ,  8-H ) :   1.0663 B(  7-C ,  9-C ) :   1.2842
B(  9-C , 10-H ) :   0.7382 B( 11-S , 12-O ) :   1.1698 B( 11-S , 13-O ) :   1.2035
B( 11-S , 14-N ) :   1.3260 B( 14-N , 15-H ) :   0.9317

MP2 TOTAL ENERGY:     -874.035497379 Eh
Dispersion correction           -0.013807609
FINAL SINGLE POINT ENERGY      -874.049304988346

DIPOLE MOMENT
-------------
                                X             Y             Z
Electronic contribution:     -0.66982       0.10433      11.92596
Nuclear contribution   :      1.23718       0.33666     -15.94144
                        -----------------------------------------
Total Dipole Moment    :      0.56737       0.44100      -4.01548
                        -----------------------------------------
Magnitude (a.u.)       :      4.07927
Magnitude (Debye)      :     10.36868

Rotational constants in cm-1:     0.087097     0.018681     0.017006
Rotational constants in MHz :  2611.108280   560.028466   509.827765

                             ****ORCA TERMINATED NORMALLY****
TOTAL RUN TIME: 0 days 0 hours 2 minutes 16 seconds 214 msec
