                         Program Version 5.0.3 -  RELEASE  -
|  1> !PAL8
|  2> !RI-DSD-PBEP86 D3BJ aug-cc-pVTZ aug-cc-pVTZ/C TightSCF
|  3> %maxcore 5000
|  4>
|  5> * xyz -1 1
|  6> C -1.3343431214  0.6768884074 -0.8325472358
|  7> C -2.5371356674  0.6703051381 -1.5394674285
|  8> H -3.4669475617  0.5825966931 -0.9842829282
|  9> C -2.5403666335  0.7845145504 -2.927896051
| 10> H -3.460426837  0.7860925581 -3.5045424169
| 11> C -1.3219114871  0.9039734997 -3.5809694694
| 12> C -0.1124444248  0.9202742208 -2.9077161375
| 13> H  0.8122413699  1.0280504237 -3.4667667553
| 14> C -0.128022486  0.8041359068 -1.5154964578
| 15> H  0.7934081798  0.8307066506 -0.940686026
| 16> S -1.3602241106  0.4294315899  0.9750669358
| 17> O -0.0278668542  0.9469220236  1.3817458485
| 18> O -2.5373725027  1.2169529392  1.3870097567
| 19> N -1.5923064725 -1.0945769259  1.2448547057
| 20> H -0.673331863 -1.5391129442  1.1938035864
| 21> F -1.3177775277  1.0184162688 -4.9380999266
| 22> *
| 23>
| 24>
| 25>
| 26>                          ****END OF INPUT****

CARTESIAN COORDINATES (ANGSTROEM)
---------------------------------
  C     -1.334343    0.676888   -0.832547
  C     -2.537136    0.670305   -1.539467
  H     -3.466948    0.582597   -0.984283
  C     -2.540367    0.784515   -2.927896
  H     -3.460427    0.786093   -3.504542
  C     -1.321911    0.903973   -3.580969
  C     -0.112444    0.920274   -2.907716
  H      0.812241    1.028050   -3.466767
  C     -0.128022    0.804136   -1.515496
  H      0.793408    0.830707   -0.940686
  S     -1.360224    0.429432    0.975067
  O     -0.027867    0.946922    1.381746
  O     -2.537373    1.216953    1.387010
  N     -1.592306   -1.094577    1.244855
  H     -0.673332   -1.539113    1.193804
  F     -1.317778    1.018416   -4.938100

 Total Charge           Charge          ....   -1
 Multiplicity           Mult            ....    1
 Number of Electrons    NEL             ....   90
 Basis Dimension        Dim             ....  625

ORBITAL ENERGIES
----------------

  NO   OCC          E(Eh)            E(eV)
   0   2.0000     -90.841246     -2471.9160
   1   2.0000     -25.603969      -696.7194
   2   2.0000     -19.823658      -539.4292
   3   2.0000     -19.821574      -539.3724
   4   2.0000     -14.881247      -404.9393
   5   2.0000     -10.817293      -294.3535
   6   2.0000     -10.736365      -292.1513
   7   2.0000     -10.736185      -292.1465
   8   2.0000     -10.731843      -292.0283
   9   2.0000     -10.731379      -292.0157
  10   2.0000     -10.725580      -291.8579
  11   2.0000      -8.583074      -233.5573
  12   2.0000      -6.369364      -173.3192
  13   2.0000      -6.367577      -173.2706
  14   2.0000      -6.366626      -173.2447
  15   2.0000      -1.376597       -37.4591
  16   2.0000      -1.132038       -30.8043
  17   2.0000      -1.016917       -27.6717
  18   2.0000      -0.944791       -25.7091
  19   2.0000      -0.874692       -23.8016
  20   2.0000      -0.821707       -22.3598
  21   2.0000      -0.812584       -22.1115
  22   2.0000      -0.661601       -18.0031
  23   2.0000      -0.659171       -17.9370
  24   2.0000      -0.574540       -15.6340
  25   2.0000      -0.563657       -15.3379
  26   2.0000      -0.516951       -14.0670
  27   2.0000      -0.509918       -13.8756
  28   2.0000      -0.484839       -13.1931
  29   2.0000      -0.450014       -12.2455
  30   2.0000      -0.431064       -11.7298
  31   2.0000      -0.429974       -11.7002
  32   2.0000      -0.419128       -11.4050
  33   2.0000      -0.387021       -10.5314
  34   2.0000      -0.385892       -10.5007
  35   2.0000      -0.349642        -9.5142
  36   2.0000      -0.335467        -9.1285
  37   2.0000      -0.289482        -7.8772
  38   2.0000      -0.256579        -6.9819
  39   2.0000      -0.243094        -6.6149
  40   2.0000      -0.225747        -6.1429
  41   2.0000      -0.211639        -5.7590
  42   2.0000      -0.202010        -5.4970
  43   2.0000      -0.191132        -5.2010
  44   2.0000      -0.150962        -4.1079
  45   0.0000       0.097594         2.6557
  46   0.0000       0.101284         2.7561
  47   0.0000       0.123732         3.3669
  48   0.0000       0.132071         3.5938
  49   0.0000       0.133066         3.6209

MULLIKEN ATOMIC CHARGES
-----------------------
   0 C :    0.933503
   1 C :   -0.765366
   2 H :    0.584257
   3 C :   -0.740255
   4 H :    0.447808
   5 C :    0.678277
   6 C :   -0.749682
   7 H :    0.450344
   8 C :   -0.827238
   9 H :    0.543088
  10 S :    1.953146
  11 O :   -1.006292
  12 O :   -1.010673
  13 N :   -1.084182
  14 H :    0.115894
  15 F :   -0.522628
Sum of atomic charges:   -1.0000000

LOEWDIN ATOMIC CHARGES
----------------------
   0 C :   -0.249970
   1 C :    0.137822
   2 H :   -0.194371
   3 C :    0.173371
   4 H :   -0.191101
   5 C :   -0.543516
   6 C :    0.170321
   7 H :   -0.192148
   8 C :    0.135863
   9 H :   -0.213851
  10 S :   -0.142538
  11 O :   -0.019667
  12 O :   -0.019622
  13 N :    0.272031
  14 H :   -0.597651
  15 F :    0.475029

  Mayer bond orders larger than 0.100000
B(  0-C ,  1-C ) :   0.9267 B(  0-C ,  3-C ) :  -0.1249 B(  0-C ,  6-C ) :  -0.1657
B(  0-C ,  8-C ) :   0.7267 B(  0-C , 10-S ) :   0.8806 B(  0-C , 13-N ) :   0.2178
B(  1-C ,  2-H ) :   0.4823 B(  1-C ,  3-C ) :   1.2567 B(  1-C ,  5-C ) :  -0.1122
B(  1-C ,  8-C ) :   0.2021 B(  1-C , 13-N ) :  -0.1116 B(  3-C ,  4-H ) :   0.7107
B(  3-C ,  5-C ) :   1.3389 B(  3-C ,  6-C ) :   0.1304 B(  3-C , 15-F ) :   0.1497
B(  4-H , 15-F ) :   0.1126 B(  5-C ,  6-C ) :   1.4155 B(  5-C , 15-F ) :   0.2772
B(  6-C ,  7-H ) :   0.7147 B(  6-C ,  8-C ) :   1.2585 B(  6-C , 15-F ) :   0.1231
B(  7-H , 15-F ) :   0.1159 B(  8-C ,  9-H ) :   0.5584 B( 10-S , 11-O ) :   1.1674
B( 10-S , 12-O ) :   1.2352 B( 10-S , 13-N ) :   1.2972 B( 13-N , 14-H ) :   0.9368

MP2 TOTAL ENERGY:     -933.943387899 Eh
Dispersion correction           -0.012236802
FINAL SINGLE POINT ENERGY      -933.955624700931

DIPOLE MOMENT
-------------
                                X             Y             Z
Electronic contribution:     -0.18043       1.98351      -4.39590
Nuclear contribution   :      0.65083      -1.75511       1.01375
                        -----------------------------------------
Total Dipole Moment    :      0.47040       0.22840      -3.38215
                        -----------------------------------------
Magnitude (a.u.)       :      3.42234
Magnitude (Debye)      :      8.69889

Rotational constants in cm-1:     0.088049     0.018225     0.016611
Rotational constants in MHz :  2639.628401   546.357030   497.970869

                             ****ORCA TERMINATED NORMALLY****
TOTAL RUN TIME: 0 days 0 hours 1 minutes 56 seconds 921 msec
