                         Program Version 5.0.3 -  RELEASE  -
|  1> !PAL8
|  2> !RI-DSD-PBEP86 D3BJ aug-cc-pVTZ aug-cc-pVTZ/C TightSCF
|  3> %maxcore 5000
|  4>
|  5> * xyz -1 1
|  6> C -1.4747014858  0.6027810853 -0.8192203789
|  7> C -2.5908755784  0.8816794459 -1.6040314876
|  8> F -3.8048434943  1.0164637369 -1.0479646788
|  9> C -2.536121687  1.0454598287 -2.987534669
| 10> H -3.4554258728  1.2612732733 -3.5223273946
| 11> C -1.3130995997  0.9327047414 -3.6376343785
| 12> C -0.1616124269  0.6580995765 -2.9023609134
| 13> H  0.8147040767  0.5615114469 -3.3656029554
| 14> C -0.278829788  0.5049244308 -1.5291012367
| 15> F  0.8540041564  0.2329428156 -0.8500068691
| 16> S -1.4472926648  0.3536613005  1.029396257
| 17> O -0.5951278416  1.4941043824  1.4310816169
| 18> O -2.8639094502  0.4232856938  1.3975087271
| 19> N -0.8557958647 -1.0624148152  1.2839458345
| 20> H  0.1594119571 -0.9622207606  1.2315503473
| 21> H -1.2547434359  1.0585358178 -4.7149188208
| 22> *
| 23>
| 24>                          ****END OF INPUT****

CARTESIAN COORDINATES (ANGSTROEM)
---------------------------------
  C     -1.474701    0.602781   -0.819220
  C     -2.590876    0.881679   -1.604031
  F     -3.804843    1.016464   -1.047965
  C     -2.536122    1.045460   -2.987535
  H     -3.455426    1.261273   -3.522327
  C     -1.313100    0.932705   -3.637634
  C     -0.161612    0.658100   -2.902361
  H      0.814704    0.561511   -3.365603
  C     -0.278830    0.504924   -1.529101
  F      0.854004    0.232943   -0.850007
  S     -1.447293    0.353661    1.029396
  O     -0.595128    1.494104    1.431082
  O     -2.863909    0.423286    1.397509
  N     -0.855796   -1.062415    1.283946
  H      0.159412   -0.962221    1.231550
  H     -1.254743    1.058536   -4.714919

 Total Charge           Charge          ....   -1
 Multiplicity           Mult            ....    1
 Number of Electrons    NEL             ....   98
 Basis Dimension        Dim             ....  648

ORBITAL ENERGIES
----------------

  NO   OCC          E(Eh)            E(eV)
   0   2.0000     -90.848844     -2472.1227
   1   2.0000     -25.590509      -696.3531
   2   2.0000     -25.583117      -696.1520
   3   2.0000     -19.824798      -539.4602
   4   2.0000     -19.823014      -539.4116
   5   2.0000     -14.884051      -405.0156
   6   2.0000     -10.821452      -294.4667
   7   2.0000     -10.821263      -294.4615
   8   2.0000     -10.751982      -292.5763
   9   2.0000     -10.737949      -292.1945
  10   2.0000     -10.737642      -292.1861
  11   2.0000     -10.737300      -292.1768
  12   2.0000      -8.589559      -233.7338
  13   2.0000      -6.376568      -173.5152
  14   2.0000      -6.373751      -173.4386
  15   2.0000      -6.372816      -173.4131
  16   2.0000      -1.368291       -37.2331
  17   2.0000      -1.362641       -37.0793
  18   2.0000      -1.137433       -30.9511
  19   2.0000      -1.020643       -27.7731
  20   2.0000      -0.952719       -25.9248
  21   2.0000      -0.881425       -23.9848
  22   2.0000      -0.828610       -22.5476
  23   2.0000      -0.818873       -22.2827
  24   2.0000      -0.677972       -18.4486
  25   2.0000      -0.662022       -18.0145
  26   2.0000      -0.590822       -16.0771
  27   2.0000      -0.567701       -15.4479
  28   2.0000      -0.543283       -14.7835
  29   2.0000      -0.503644       -13.7049
  30   2.0000      -0.500946       -13.6314
  31   2.0000      -0.496168       -13.5014
  32   2.0000      -0.489564       -13.3217
  33   2.0000      -0.471130       -12.8201
  34   2.0000      -0.448535       -12.2053
  35   2.0000      -0.423435       -11.5223
  36   2.0000      -0.400460       -10.8971
  37   2.0000      -0.392793       -10.6884
  38   2.0000      -0.378081       -10.2881
  39   2.0000      -0.373262       -10.1570
  40   2.0000      -0.348744        -9.4898
  41   2.0000      -0.290942        -7.9169
  42   2.0000      -0.261233        -7.1085
  43   2.0000      -0.243267        -6.6196
  44   2.0000      -0.230095        -6.2612
  45   2.0000      -0.207281        -5.6404
  46   2.0000      -0.202384        -5.5071
  47   2.0000      -0.193918        -5.2768
  48   2.0000      -0.160707        -4.3731
  49   0.0000       0.087941         2.3930
  50   0.0000       0.099287         2.7017
  51   0.0000       0.110866         3.0168
  52   0.0000       0.136051         3.7021
  53   0.0000       0.154590         4.2066

MULLIKEN ATOMIC CHARGES
-----------------------
   0 C :    0.133877
   1 C :    0.554353
   2 F :   -0.515623
   3 C :   -0.831354
   4 H :    0.558617
   5 C :   -0.196579
   6 C :   -0.891219
   7 H :    0.570668
   8 C :    0.493051
   9 F :   -0.529672
  10 S :    2.165578
  11 O :   -1.029836
  12 O :   -0.970370
  13 N :   -1.079069
  14 H :    0.130893
  15 H :    0.436685
Sum of atomic charges:   -1.0000000

LOEWDIN ATOMIC CHARGES
----------------------
   0 C :   -0.218943
   1 C :   -0.578686
   2 F :    0.514078
   3 C :    0.158111
   4 H :   -0.195010
   5 C :    0.147270
   6 C :    0.163066
   7 H :   -0.193569
   8 C :   -0.594900
   9 F :    0.520430
  10 S :   -0.156200
  11 O :   -0.025028
  12 O :   -0.017889
  13 N :    0.276822
  14 H :   -0.609980
  15 H :   -0.189569

  Mayer bond orders larger than 0.100000
B(  0-C ,  1-C ) :   1.3802 B(  0-C ,  2-F ) :   0.2587 B(  0-C ,  3-C ) :   0.1650
B(  0-C ,  8-C ) :   1.5779 B(  0-C ,  9-F ) :   0.1768 B(  0-C , 10-S ) :   0.7302
B(  0-C , 11-O ) :   0.1575 B(  0-C , 12-O ) :   0.1175 B(  0-C , 13-N ) :   0.2247
B(  1-C ,  2-F ) :   0.5159 B(  1-C ,  3-C ) :   1.0969 B(  1-C ,  5-C ) :  -0.1608
B(  1-C ,  8-C ) :  -0.3857 B(  3-C ,  4-H ) :   0.4223 B(  3-C ,  5-C ) :   1.1759
B(  3-C ,  6-C ) :   0.2614 B(  5-C ,  6-C ) :   1.1541 B(  5-C ,  8-C ) :  -0.2995
B(  5-C , 15-H ) :   0.8203 B(  6-C ,  7-H ) :   0.3826 B(  6-C ,  8-C ) :   1.1339
B(  8-C ,  9-F ) :   0.4667 B( 10-S , 11-O ) :   1.1319 B( 10-S , 12-O ) :   1.1896
B( 10-S , 13-N ) :   1.3105 B( 11-O , 13-N ) :   0.1036 B( 13-N , 14-H ) :   0.9171

MP2 TOTAL ENERGY:    -1033.087327762 Eh
Dispersion correction           -0.012375125
FINAL SINGLE POINT ENERGY     -1033.099702886680

DIPOLE MOMENT
-------------
                                X             Y             Z
Electronic contribution:     -1.41775       0.93867       3.11939
Nuclear contribution   :      1.93155      -0.41960      -6.83993
                        -----------------------------------------
Total Dipole Moment    :      0.51381       0.51907      -3.72054
                        -----------------------------------------
Magnitude (a.u.)       :      3.79155
Magnitude (Debye)      :      9.63734

Rotational constants in cm-1:     0.043151     0.026637     0.018278
Rotational constants in MHz :  1293.644806   798.569809   547.958531

                             ****ORCA TERMINATED NORMALLY****
TOTAL RUN TIME: 0 days 0 hours 2 minutes 7 seconds 139 msec
