                         Program Version 5.0.3 -  RELEASE  -
|  1> !PAL8
|  2> !RI-DSD-PBEP86 D3BJ aug-cc-pVTZ aug-cc-pVTZ/C TightSCF
|  3> %maxcore 5000
|  4>
|  5> * xyz -1 1
|  6> C -1.4731750396  0.6205596391 -0.811808809
|  7> C -2.6136705645  0.8316616366 -1.5780269035
|  8> F -3.8357163993  0.8974290581 -1.0478316354
|  9> C -2.5532431366  0.9804743012 -2.9633619237
| 10> F -3.6710248654  1.1810344481 -3.6769749733
| 11> C -1.3349713517  0.9171696749 -3.6172640086
| 12> C -0.1780148135  0.7055267041 -2.8806238525
| 13> F  1.0050981216  0.6443861144 -3.5089510597
| 14> C -0.2673769468  0.560600888 -1.5043968458
| 15> F  0.8837713255  0.3680070005 -0.8472706052
| 16> S -1.4273191855  0.4205720333  1.0603406991
| 17> O -2.8277407422  0.6246606854  1.4307112185
| 18> O -0.8981172308 -0.954911811  1.1462470224
| 19> N -0.5087306552  1.5475819372  1.600472893
| 20> H  0.4506218484  1.2075410231  1.5147622796
| 21> F -1.2713673645  1.059466667 -4.947669496
| 22> *
| 23>
| 24>                          ****END OF INPUT****

CARTESIAN COORDINATES (ANGSTROEM)
---------------------------------
  C     -1.473175    0.620560   -0.811809
  C     -2.613671    0.831662   -1.578027
  F     -3.835716    0.897429   -1.047832
  C     -2.553243    0.980474   -2.963362
  F     -3.671025    1.181034   -3.676975
  C     -1.334971    0.917170   -3.617264
  C     -0.178015    0.705527   -2.880624
  F      1.005098    0.644386   -3.508951
  C     -0.267377    0.560601   -1.504397
  F      0.883771    0.368007   -0.847271
  S     -1.427319    0.420572    1.060341
  O     -2.827741    0.624661    1.430711
  O     -0.898117   -0.954912    1.146247
  N     -0.508731    1.547582    1.600473
  H      0.450622    1.207541    1.514762
  F     -1.271367    1.059467   -4.947669

 Total Charge           Charge          ....   -1
 Multiplicity           Mult            ....    1
 Number of Electrons    NEL             ....  122
 Basis Dimension        Dim             ....  717

ORBITAL ENERGIES
----------------

  NO   OCC          E(Eh)            E(eV)
   0   2.0000     -90.867527     -2472.6311
   1   2.0000     -25.644662      -697.8267
   2   2.0000     -25.636575      -697.6067
   3   2.0000     -25.634842      -697.5595
   4   2.0000     -25.615617      -697.0364
   5   2.0000     -25.607796      -696.8236
   6   2.0000     -19.843075      -539.9575
   7   2.0000     -19.841117      -539.9042
   8   2.0000     -14.902416      -405.5153
   9   2.0000     -10.859092      -295.4909
  10   2.0000     -10.850274      -295.2510
  11   2.0000     -10.849440      -295.2283
  12   2.0000     -10.847250      -295.1687
  13   2.0000     -10.846799      -295.1564
  14   2.0000     -10.762594      -292.8651
  15   2.0000      -8.608117      -234.2388
  16   2.0000      -6.395425      -174.0284
  17   2.0000      -6.392174      -173.9399
  18   2.0000      -6.391199      -173.9134
  19   2.0000      -1.427349       -38.8401
  20   2.0000      -1.414127       -38.4804
  21   2.0000      -1.408089       -38.3160
  22   2.0000      -1.391832       -37.8737
  23   2.0000      -1.386035       -37.7159
  24   2.0000      -1.156725       -31.4761
  25   2.0000      -1.039957       -28.2987
  26   2.0000      -0.988105       -26.8877
  27   2.0000      -0.901027       -24.5182
  28   2.0000      -0.857198       -23.3255
  29   2.0000      -0.850529       -23.1441
  30   2.0000      -0.724871       -19.7247
  31   2.0000      -0.712703       -19.3936
  32   2.0000      -0.635566       -17.2946
  33   2.0000      -0.630413       -17.1544
  34   2.0000      -0.621514       -16.9123
  35   2.0000      -0.582356       -15.8467
  36   2.0000      -0.573999       -15.6193
  37   2.0000      -0.571060       -15.5393
  38   2.0000      -0.570783       -15.5318
  39   2.0000      -0.543063       -14.7775
  40   2.0000      -0.541830       -14.7439
  41   2.0000      -0.532246       -14.4832
  42   2.0000      -0.513748       -13.9798
  43   2.0000      -0.507284       -13.8039
  44   2.0000      -0.499749       -13.5989
  45   2.0000      -0.496824       -13.5193
  46   2.0000      -0.473258       -12.8780
  47   2.0000      -0.446164       -12.1407
  48   2.0000      -0.443616       -12.0714
  49   2.0000      -0.431622       -11.7450
  50   2.0000      -0.413320       -11.2470
  51   2.0000      -0.397877       -10.8268
  52   2.0000      -0.361870        -9.8470
  53   2.0000      -0.309191        -8.4135
  54   2.0000      -0.278539        -7.5794
  55   2.0000      -0.261644        -7.1197
  56   2.0000      -0.248326        -6.7573
  57   2.0000      -0.226354        -6.1594
  58   2.0000      -0.220684        -6.0051
  59   2.0000      -0.211499        -5.7552
  60   2.0000      -0.180082        -4.9003
  61   0.0000       0.111118         3.0237
  62   0.0000       0.127189         3.4610
  63   0.0000       0.134023         3.6470
  64   0.0000       0.145609         3.9622
  65   0.0000       0.155988         4.2446

MULLIKEN ATOMIC CHARGES
-----------------------
   0 C :    0.047235
   1 C :    0.391568
   2 F :   -0.484148
   3 C :    0.373244
   4 F :   -0.454171
   5 C :    0.498920
   6 C :    0.462374
   7 F :   -0.445746
   8 C :    0.285455
   9 F :   -0.465935
  10 S :    2.153833
  11 O :   -0.955773
  12 O :   -1.018210
  13 N :   -1.065762
  14 H :    0.136864
  15 F :   -0.459749
Sum of atomic charges:   -1.0000000

LOEWDIN ATOMIC CHARGES
----------------------
   0 C :   -0.225049
   1 C :   -0.594106
   2 F :    0.530825
   3 C :   -0.565396
   4 F :    0.517036
   5 C :   -0.569877
   6 C :   -0.561188
   7 F :    0.517575
   8 C :   -0.613158
   9 F :    0.536745
  10 S :   -0.149381
  11 O :   -0.009973
  12 O :   -0.017014
  13 N :    0.283243
  14 H :   -0.601157
  15 F :    0.520875

  Mayer bond orders larger than 0.100000
B(  0-C ,  1-C ) :   1.2458 B(  0-C ,  2-F ) :   0.2566 B(  0-C ,  8-C ) :   1.2143
B(  0-C ,  9-F ) :   0.2571 B(  0-C , 10-S ) :   0.7556 B(  0-C , 11-O ) :   0.1309
B(  0-C , 12-O ) :   0.1889 B(  0-C , 13-N ) :   0.2688 B(  1-C ,  2-F ) :   0.3982
B(  1-C ,  3-C ) :   1.1374 B(  1-C ,  4-F ) :   0.2325 B(  1-C ,  6-C ) :   0.1074
B(  1-C ,  8-C ) :  -0.2166 B(  2-F ,  4-F ) :   0.1088 B(  3-C ,  4-F ) :   0.1656
B(  3-C ,  5-C ) :   1.2772 B(  3-C , 15-F ) :   0.1846 B(  4-F ,  5-C ) :   0.1153
B(  4-F , 15-F ) :   0.1263 B(  5-C ,  6-C ) :   1.2272 B(  5-C ,  7-F ) :   0.1133
B(  5-C , 15-F ) :   0.1960 B(  6-C ,  7-F ) :   0.1750 B(  6-C ,  8-C ) :   1.2178
B(  6-C , 15-F ) :   0.1650 B(  7-F ,  8-C ) :   0.2509 B(  7-F , 15-F ) :   0.1230
B(  8-C ,  9-F ) :   0.3209 B( 10-S , 11-O ) :   1.2298 B( 10-S , 12-O ) :   1.1452
B( 10-S , 13-N ) :   1.3086 B( 12-O , 13-N ) :   0.1041 B( 13-N , 14-H ) :   0.9116

MP2 TOTAL ENERGY:    -1330.535167571 Eh
Dispersion correction           -0.012782167
FINAL SINGLE POINT ENERGY     -1330.547949738926

DIPOLE MOMENT
-------------
                                X             Y             Z
Electronic contribution:     -1.17081       0.48962     -13.16338
Nuclear contribution   :      1.63338      -0.24270       9.52374
                        -----------------------------------------
Total Dipole Moment    :      0.46256       0.24691      -3.63963
                        -----------------------------------------
Magnitude (a.u.)       :      3.67721
Magnitude (Debye)      :      9.34672

Rotational constants in cm-1:     0.028345     0.014387     0.010123
Rotational constants in MHz :   849.758776   431.325173   303.481744

                             ****ORCA TERMINATED NORMALLY****
TOTAL RUN TIME: 0 days 0 hours 2 minutes 38 seconds 872 msec
