                         Program Version 5.0.3 -  RELEASE  -
|  1> !PAL8
|  2> !RI-DSD-PBEP86 D3BJ aug-cc-pVTZ aug-cc-pVTZ/C TightSCF
|  3> %maxcore 3000
|  4>
|  5>
|  6> * xyz -1 1
|  7> C -1.3167081527  0.7533349742 -0.9396836357
|  8> C -2.4793976157  1.0021547037 -1.670202704
|  9> H -3.4249048448  1.0548111344 -1.1378690853
| 10> C -2.4176396731  1.1942262955 -3.04587862
| 11> H -3.3094698884  1.3952058486 -3.6333103707
| 12> C -1.1866086471  1.1313330305 -3.7043084276
| 13> O -1.2231568911  1.3336892703 -5.0644617112
| 14> C -0.017730161  0.8846356333 -2.9819480897
| 15> H  0.9488413863  0.8388891429 -3.4726977635
| 16> C -0.0959515102  0.6973135619 -1.5986404518
| 17> H  0.8013710135  0.5209451635 -1.0103165222
| 18> S -1.3846351332  0.4398219357  0.8559396202
| 19> O -2.661333806  1.0983479991  1.2403167165
| 20> O -1.3633840308 -1.0341303812  0.928399424
| 21> N -0.0916773038  1.0472475767  1.4977292369
| 22> H -0.2885021024  2.0385439661  1.6519203412
| 23> C -0.0030015407  1.2622601853 -5.7566861175
| 24> H -0.2379025411  1.4347910434 -6.8086174993
| 25> H  0.4647282566  0.2749644354 -5.6450754183
| 26> H  0.7011091857  2.0308814808 -5.4106809222
| 27> *
| 28>
| 29>                          ****END OF INPUT****

CARTESIAN COORDINATES (ANGSTROEM)
---------------------------------
  C     -1.316708    0.753335   -0.939684
  C     -2.479398    1.002155   -1.670203
  H     -3.424905    1.054811   -1.137869
  C     -2.417640    1.194226   -3.045879
  H     -3.309470    1.395206   -3.633310
  C     -1.186609    1.131333   -3.704308
  O     -1.223157    1.333689   -5.064462
  C     -0.017730    0.884636   -2.981948
  H      0.948841    0.838889   -3.472698
  C     -0.095952    0.697314   -1.598640
  H      0.801371    0.520945   -1.010317
  S     -1.384635    0.439822    0.855940
  O     -2.661334    1.098348    1.240317
  O     -1.363384   -1.034130    0.928399
  N     -0.091677    1.047248    1.497729
  H     -0.288502    2.038544    1.651920
  C     -0.003002    1.262260   -5.756686
  H     -0.237903    1.434791   -6.808617
  H      0.464728    0.274964   -5.645075
  H      0.701109    2.030881   -5.410681

 Total Charge           Charge          ....   -1
 Multiplicity           Mult            ....    1
 Number of Electrons    NEL             ....   98
 Basis Dimension        Dim             ....  740

ORBITAL ENERGIES
----------------

  NO   OCC          E(Eh)            E(eV)
   0   2.0000     -90.834362     -2471.7286
   1   2.0000     -19.959881      -543.1360
   2   2.0000     -19.816691      -539.2396
   3   2.0000     -19.813677      -539.1576
   4   2.0000     -14.875734      -404.7893
   5   2.0000     -10.801515      -293.9242
   6   2.0000     -10.793042      -293.6936
   7   2.0000     -10.726797      -291.8910
   8   2.0000     -10.722199      -291.7659
   9   2.0000     -10.721884      -291.7573
  10   2.0000     -10.721179      -291.7381
  11   2.0000     -10.713690      -291.5343
  12   2.0000      -8.576177      -233.3696
  13   2.0000      -6.362332      -173.1279
  14   2.0000      -6.360706      -173.0836
  15   2.0000      -6.359819      -173.0595
  16   2.0000      -1.194401       -32.5013
  17   2.0000      -1.124227       -30.5918
  18   2.0000      -1.008009       -27.4293
  19   2.0000      -0.931610       -25.3504
  20   2.0000      -0.869999       -23.6739
  21   2.0000      -0.822488       -22.3810
  22   2.0000      -0.808289       -21.9946
  23   2.0000      -0.757911       -20.6238
  24   2.0000      -0.645540       -17.5660
  25   2.0000      -0.634168       -17.2566
  26   2.0000      -0.565458       -15.3869
  27   2.0000      -0.550073       -14.9683
  28   2.0000      -0.502531       -13.6746
  29   2.0000      -0.500983       -13.6324
  30   2.0000      -0.473281       -12.8786
  31   2.0000      -0.449767       -12.2388
  32   2.0000      -0.429650       -11.6914
  33   2.0000      -0.417222       -11.3532
  34   2.0000      -0.408301       -11.1104
  35   2.0000      -0.384675       -10.4675
  36   2.0000      -0.383758       -10.4426
  37   2.0000      -0.372882       -10.1466
  38   2.0000      -0.361901        -9.8478
  39   2.0000      -0.320263        -8.7148
  40   2.0000      -0.315469        -8.5844
  41   2.0000      -0.281786        -7.6678
  42   2.0000      -0.249504        -6.7894
  43   2.0000      -0.237822        -6.4715
  44   2.0000      -0.212471        -5.7816
  45   2.0000      -0.202062        -5.4984
  46   2.0000      -0.185583        -5.0500
  47   2.0000      -0.177906        -4.8411
  48   2.0000      -0.149436        -4.0664
  49   0.0000       0.079363         2.1596
  50   0.0000       0.096868         2.6359
  51   0.0000       0.104031         2.8308
  52   0.0000       0.107101         2.9144
  53   0.0000       0.124641         3.3916

MULLIKEN ATOMIC CHARGES
-----------------------
   0 C :    1.064433
   1 C :   -0.853004
   2 H :    0.398201
   3 C :   -0.816202
   4 H :    0.537030
   5 C :    0.975207
   6 O :   -0.690747
   7 C :   -0.451698
   8 H :    0.300703
   9 C :   -0.896295
  10 H :    0.407795
  11 S :    1.895341
  12 O :   -1.007306
  13 O :   -1.016346
  14 N :   -1.069633
  15 H :    0.092261
  16 C :   -0.940575
  17 H :    0.366954
  18 H :    0.348272
  19 H :    0.355609
Sum of atomic charges:   -1.0000000

LOEWDIN ATOMIC CHARGES
----------------------
   0 C :   -0.251584
   1 C :    0.141498
   2 H :   -0.209187
   3 C :    0.188458
   4 H :   -0.189732
   5 C :   -0.400902
   6 O :    0.569843
   7 C :    0.187438
   8 H :   -0.214227
   9 C :    0.142396
  10 H :   -0.197821
  11 S :   -0.144401
  12 O :   -0.024281
  13 O :   -0.031692
  14 N :    0.271706
  15 H :   -0.592984
  16 C :    0.295043
  17 H :   -0.186431
  18 H :   -0.176305
  19 H :   -0.176835

  Mayer bond orders larger than 0.100000
B(  0-C ,  1-C ) :   0.8009 B(  0-C ,  9-C ) :   0.9326 B(  0-C , 11-S ) :   0.8299
B(  0-C , 12-O ) :   0.2632 B(  0-C , 13-O ) :  -0.1776 B(  1-C ,  2-H ) :   0.7683
B(  1-C ,  3-C ) :   1.2672 B(  1-C ,  5-C ) :  -0.1516 B(  1-C , 12-O ) :  -0.1720
B(  3-C ,  4-H ) :   0.6035 B(  3-C ,  5-C ) :   0.9970 B(  3-C ,  6-O ) :   0.2966
B(  5-C ,  6-O ) :   0.4635 B(  5-C ,  7-C ) :   1.1724 B(  6-O ,  7-C ) :  -0.3048
B(  6-O , 16-C ) :   1.0309 B(  7-C ,  8-H ) :   0.9624 B(  7-C ,  9-C ) :   1.0521
B(  9-C , 10-H ) :   0.7397 B(  9-C , 14-N ) :  -0.1066 B( 11-S , 12-O ) :   1.1640
B( 11-S , 13-O ) :   1.3108 B( 11-S , 14-N ) :   1.2490 B( 11-S , 15-H ) :   0.1131
B( 14-N , 15-H ) :   0.9569 B( 16-C , 17-H ) :   0.9076 B( 16-C , 18-H ) :   0.8848
B( 16-C , 19-H ) :   0.8792

MP2 TOTAL ENERGY:     -949.165772173 Eh
Dispersion correction           -0.014283676
FINAL SINGLE POINT ENERGY      -949.180055849679

DIPOLE MOMENT
-------------
                                X             Y             Z
Electronic contribution:     -4.28525      -2.05725       8.84234
Nuclear contribution   :      4.95208       3.19031     -13.43583
                        -----------------------------------------
Total Dipole Moment    :      0.66683       1.13306      -4.59348
                        -----------------------------------------
Magnitude (a.u.)       :      4.77793
Magnitude (Debye)      :     12.14452

Rotational constants in cm-1:     0.081167     0.013806     0.012741
Rotational constants in MHz :  2433.330271   413.894560   381.953754

                             ****ORCA TERMINATED NORMALLY****
TOTAL RUN TIME: 0 days 0 hours 3 minutes 29 seconds 538 msec
