                         Program Version 5.0.3 -  RELEASE  -
|  1> !PAL8
|  2> !RI-DSD-PBEP86 D3BJ aug-cc-pVTZ aug-cc-pVTZ/C TightSCF
|  3> %maxcore 5000
|  4>
|  5> * xyz 0 1
|  6> C -1.1913817341  0.7189290956 -0.8186265869
|  7> C -2.3824717839  0.529518193 -1.5323676672
|  8> C -3.6897318827  0.1391813199 -0.9107504302
|  9> C -2.3677813653  0.6722552102 -2.9194609189
| 10> H -3.2858484472  0.4891531033 -3.4695249015
| 11> C -1.1976385932  1.0366348085 -3.5816692577
| 12> C -0.0232047398  1.2355620065 -2.8613610605
| 13> H  0.8948404318  1.504896316 -3.3741752342
| 14> C -0.0147788041  1.0622508462 -1.4779064093
| 15> H  0.9009610336  1.1615676671 -0.9038761975
| 16> S -1.0745313275  0.4220400511  0.9540731545
| 17> O -1.9397867958 -0.7026659916  1.2575962544
| 18> O  0.3408020491  0.4188656126  1.2834374843
| 19> N -1.7006103422  1.7546236781  1.7226811842
| 20> H -2.6448858821  1.9596834009  1.4024349811
| 21> H -1.0732106534  2.551653392  1.6492661359
| 22> O -4.4182951021 -0.7045456137 -1.3648825811
| 23> O -3.9894267797  0.8797969622  0.1707494103
| 24> C -5.1077281136  0.4062108761  0.9348434456
| 25> H -1.2032292359  1.1528061266 -4.6608996951
| 26> H -5.2144953686  1.1036391337  1.7645700738
| 27> H -4.8886056806 -0.5985965149  1.3018223291
| 28> H -6.0072028825  0.3955093206  0.3175684869
| 29> *
| 30>
| 31>                          ****END OF INPUT****

CARTESIAN COORDINATES (ANGSTROEM)
---------------------------------
  C     -1.191382    0.718929   -0.818627
  C     -2.382472    0.529518   -1.532368
  C     -3.689732    0.139181   -0.910750
  C     -2.367781    0.672255   -2.919461
  H     -3.285848    0.489153   -3.469525
  C     -1.197639    1.036635   -3.581669
  C     -0.023205    1.235562   -2.861361
  H      0.894840    1.504896   -3.374175
  C     -0.014779    1.062251   -1.477906
  H      0.900961    1.161568   -0.903876
  S     -1.074531    0.422040    0.954073
  O     -1.939787   -0.702666    1.257596
  O      0.340802    0.418866    1.283437
  N     -1.700610    1.754624    1.722681
  H     -2.644886    1.959683    1.402435
  H     -1.073211    2.551653    1.649266
  O     -4.418295   -0.704546   -1.364883
  O     -3.989427    0.879797    0.170749
  C     -5.107728    0.406211    0.934843
  H     -1.203229    1.152806   -4.660900
  H     -5.214495    1.103639    1.764570
  H     -4.888606   -0.598597    1.301822
  H     -6.007203    0.395509    0.317568

 Total Charge           Charge          ....    0
 Multiplicity           Mult            ....    1
 Number of Electrons    NEL             ....  112
 Basis Dimension        Dim             ....  855

ORBITAL ENERGIES
----------------

  NO   OCC          E(Eh)            E(eV)
   0   2.0000     -91.046490     -2477.5009
   1   2.0000     -20.090138      -546.6805
   2   2.0000     -20.028880      -545.0135
   3   2.0000     -20.020065      -544.7737
   4   2.0000     -20.019600      -544.7610
   5   2.0000     -15.137532      -411.9132
   6   2.0000     -10.996909      -299.2411
   7   2.0000     -10.899347      -296.5863
   8   2.0000     -10.895581      -296.4838
   9   2.0000     -10.891692      -296.3780
  10   2.0000     -10.875247      -295.9305
  11   2.0000     -10.874158      -295.9009
  12   2.0000     -10.873107      -295.8723
  13   2.0000     -10.872058      -295.8437
  14   2.0000      -8.789285      -239.1686
  15   2.0000      -6.575315      -178.9234
  16   2.0000      -6.574228      -178.8938
  17   2.0000      -6.572543      -178.8480
  18   2.0000      -1.357554       -36.9409
  19   2.0000      -1.342131       -36.5213
  20   2.0000      -1.258604       -34.2484
  21   2.0000      -1.227719       -33.4079
  22   2.0000      -1.114606       -30.3300
  23   2.0000      -1.091088       -29.6900
  24   2.0000      -0.980296       -26.6752
  25   2.0000      -0.967519       -26.3275
  26   2.0000      -0.903271       -24.5793
  27   2.0000      -0.835524       -22.7358
  28   2.0000      -0.799181       -21.7468
  29   2.0000      -0.761244       -20.7145
  30   2.0000      -0.728012       -19.8102
  31   2.0000      -0.702595       -19.1186
  32   2.0000      -0.664820       -18.0907
  33   2.0000      -0.655990       -17.8504
  34   2.0000      -0.636127       -17.3099
  35   2.0000      -0.624940       -17.0055
  36   2.0000      -0.618274       -16.8241
  37   2.0000      -0.608039       -16.5456
  38   2.0000      -0.596387       -16.2285
  39   2.0000      -0.577923       -15.7261
  40   2.0000      -0.565617       -15.3912
  41   2.0000      -0.549629       -14.9562
  42   2.0000      -0.519516       -14.1367
  43   2.0000      -0.503576       -13.7030
  44   2.0000      -0.493772       -13.4362
  45   2.0000      -0.493057       -13.4168
  46   2.0000      -0.482434       -13.1277
  47   2.0000      -0.457653       -12.4534
  48   2.0000      -0.443992       -12.0816
  49   2.0000      -0.437252       -11.8982
  50   2.0000      -0.430538       -11.7155
  51   2.0000      -0.418338       -11.3836
  52   2.0000      -0.413837       -11.2611
  53   2.0000      -0.405611       -11.0372
  54   2.0000      -0.349787        -9.5182
  55   2.0000      -0.346254        -9.4220
  56   0.0000       0.003453         0.0940
  57   0.0000       0.009510         0.2588
  58   0.0000       0.017344         0.4720
  59   0.0000       0.023160         0.6302
  60   0.0000       0.027008         0.7349

MULLIKEN ATOMIC CHARGES
-----------------------
   0 C :    0.297685
   1 C :    1.341490
   2 C :    0.578501
   3 C :   -0.951456
   4 H :    0.085108
   5 C :   -0.468929
   6 C :   -0.317168
   7 H :    0.471423
   8 C :   -0.948726
   9 H :    0.462670
  10 S :    2.144595
  11 O :   -0.991283
  12 O :   -0.999646
  13 N :   -0.662319
  14 H :    0.287818
  15 H :    0.105579
  16 O :   -0.874912
  17 O :   -0.328564
  18 C :   -0.951922
  19 H :    0.629657
  20 H :    0.328763
  21 H :    0.386790
  22 H :    0.374846
Sum of atomic charges:    0.0000000

LOEWDIN ATOMIC CHARGES
----------------------
   0 C :   -0.211619
   1 C :   -0.163511
   2 C :   -0.857913
   3 C :    0.213966
   4 H :   -0.169194
   5 C :    0.222819
   6 C :    0.217685
   7 H :   -0.172057
   8 C :    0.165725
   9 H :   -0.211060
  10 S :    0.146015
  11 O :    0.088900
  12 O :    0.086710
  13 N :    0.699665
  14 H :   -0.441598
  15 H :   -0.349205
  16 O :    0.503316
  17 O :    0.569045
  18 C :    0.361374
  19 H :   -0.170655
  20 H :   -0.178059
  21 H :   -0.170924
  22 H :   -0.179428

  Mayer bond orders larger than 0.100000
B(  0-C ,  1-C ) :   1.1766 B(  0-C ,  2-C ) :   0.1798 B(  0-C ,  3-C ) :  -0.3231
B(  0-C ,  6-C ) :  -0.1218 B(  0-C ,  8-C ) :   0.7854 B(  0-C ,  9-H ) :   0.1091
B(  0-C , 10-S ) :   1.0677 B(  0-C , 11-O ) :   0.1968 B(  0-C , 12-O ) :   0.2213
B(  0-C , 13-N ) :   0.1306 B(  0-C , 17-O ) :   0.1099 B(  1-C ,  3-C ) :   0.6285
B(  1-C ,  4-H ) :  -0.1799 B(  1-C ,  5-C ) :   0.1828 B(  1-C ,  8-C ) :   0.1059
B(  1-C , 16-O ) :  -0.1066 B(  1-C , 17-O ) :  -0.3526 B(  2-C ,  3-C ) :   0.1396
B(  2-C , 16-O ) :   1.1629 B(  2-C , 17-O ) :   1.2266 B(  3-C ,  4-H ) :   1.4632
B(  3-C ,  5-C ) :   1.1481 B(  3-C ,  6-C ) :  -0.2357 B(  4-H , 16-O ) :   0.1507
B(  5-C ,  6-C ) :   1.0989 B(  5-C ,  7-H ) :  -0.1253 B(  5-C ,  8-C ) :   0.2099
B(  5-C , 19-H ) :   0.5162 B(  6-C ,  7-H ) :   0.8045 B(  6-C ,  8-C ) :   0.9513
B(  8-C ,  9-H ) :   0.6942 B( 10-S , 11-O ) :   1.2895 B( 10-S , 12-O ) :   1.0236
B( 10-S , 13-N ) :   0.9312 B( 13-N , 14-H ) :   0.8063 B( 13-N , 15-H ) :   1.0083
B( 17-O , 18-C ) :   0.9691 B( 18-C , 20-H ) :   0.9110 B( 18-C , 21-H ) :   0.8474
B( 18-C , 22-H ) :   0.8578

MP2 TOTAL ENERGY:    -1062.940916399 Eh
Dispersion correction           -0.017507550
FINAL SINGLE POINT ENERGY     -1062.958423949492

DIPOLE MOMENT
-------------
                                X             Y             Z
Electronic contribution:      3.83101      -2.56937       0.98997
Nuclear contribution   :     -4.19864       4.55140      -2.13844
                        -----------------------------------------
Total Dipole Moment    :     -0.36763       1.98203      -1.14847
                        -----------------------------------------
Magnitude (a.u.)       :      2.32004
Magnitude (Debye)      :      5.89707

Rotational constants in cm-1:     0.025867     0.023157     0.013818
Rotational constants in MHz :   775.469424   694.234900   414.258761

                             ****ORCA TERMINATED NORMALLY****
TOTAL RUN TIME: 0 days 0 hours 4 minutes 2 seconds 612 msec
