                         Program Version 5.0.3 -  RELEASE  -
|  1> !PAL8
|  2> !RI-DSD-PBEP86 D3BJ aug-cc-pVTZ aug-cc-pVTZ/C TightSCF
|  3> %maxcore 5000
|  4>
|  5>
|  6> * xyz 0 1
|  7> C -1.4171341521  0.5681811807 -0.8509602041
|  8> C -2.4444334969  0.0532359445 -1.6373829818
|  9> H -3.2806473999 -0.4566395286 -1.1684614413
| 10> C -2.3589634181  0.1778872398 -3.0211074164
| 11> H -3.1405986059 -0.220777882 -3.6583207197
| 12> C -1.2534559396  0.8121164331 -3.5933050488
| 13> C -1.1147353676  0.9703687226 -5.0739675911
| 14> C -0.226113609  1.3141318949 -2.7908644869
| 15> H  0.6269738592  1.7878911471 -3.266192003
| 16> C -0.3027282237  1.1922753243 -1.4078466528
| 17> H  0.4952890031  1.5508639602 -0.7645967963
| 18> S -1.5465990721  0.4502056666  0.930287296
| 19> O -2.4595984503 -0.6388205176  1.2239857042
| 20> O -0.2007033766  0.5279457212  1.4667354995
| 21> N -2.3154453378  1.8325392448  1.4473056497
| 22> H -3.2722437229  1.9047666157  1.1113437588
| 23> H -1.7722665492  2.675395563  1.2794448108
| 24> O -2.1448797628  0.4395713624 -5.7467630046
| 25> O -0.1793348767  1.5168036229 -5.6099362535
| 26> C -2.0675507509  0.5558985304 -7.1700544788
| 27> H -2.9681714625  0.0783701435 -7.551701292
| 28> H -1.1730088025  0.0504906892 -7.5397386075
| 29> H -2.0326724849  1.6082649208 -7.4594677405
| 30> *
| 31>
| 32>                          ****END OF INPUT****

CARTESIAN COORDINATES (ANGSTROEM)
---------------------------------
  C     -1.417134    0.568181   -0.850960
  C     -2.444433    0.053236   -1.637383
  H     -3.280647   -0.456640   -1.168461
  C     -2.358963    0.177887   -3.021107
  H     -3.140599   -0.220778   -3.658321
  C     -1.253456    0.812116   -3.593305
  C     -1.114735    0.970369   -5.073968
  C     -0.226114    1.314132   -2.790864
  H      0.626974    1.787891   -3.266192
  C     -0.302728    1.192275   -1.407847
  H      0.495289    1.550864   -0.764597
  S     -1.546599    0.450206    0.930287
  O     -2.459598   -0.638821    1.223986
  O     -0.200703    0.527946    1.466735
  N     -2.315445    1.832539    1.447306
  H     -3.272244    1.904767    1.111344
  H     -1.772267    2.675396    1.279445
  O     -2.144880    0.439571   -5.746763
  O     -0.179335    1.516804   -5.609936
  C     -2.067551    0.555899   -7.170054
  H     -2.968171    0.078370   -7.551701
  H     -1.173009    0.050491   -7.539739
  H     -2.032672    1.608265   -7.459468

 Total Charge           Charge          ....    0
 Multiplicity           Mult            ....    1
 Number of Electrons    NEL             ....  112
 Basis Dimension        Dim             ....  855

ORBITAL ENERGIES
----------------

  NO   OCC          E(Eh)            E(eV)
   0   2.0000     -91.048335     -2477.5511
   1   2.0000     -20.088900      -546.6468
   2   2.0000     -20.026768      -544.9561
   3   2.0000     -20.023349      -544.8630
   4   2.0000     -20.023236      -544.8600
   5   2.0000     -15.145077      -412.1185
   6   2.0000     -10.993605      -299.1512
   7   2.0000     -10.898437      -296.5616
   8   2.0000     -10.897151      -296.5266
   9   2.0000     -10.882768      -296.1352
  10   2.0000     -10.877441      -295.9902
  11   2.0000     -10.876752      -295.9715
  12   2.0000     -10.875761      -295.9445
  13   2.0000     -10.873216      -295.8752
  14   2.0000      -8.791351      -239.2248
  15   2.0000      -6.577519      -178.9834
  16   2.0000      -6.576194      -178.9473
  17   2.0000      -6.574580      -178.9034
  18   2.0000      -1.355780       -36.8926
  19   2.0000      -1.345999       -36.6265
  20   2.0000      -1.255621       -34.1672
  21   2.0000      -1.231535       -33.5118
  22   2.0000      -1.118270       -30.4297
  23   2.0000      -1.091709       -29.7069
  24   2.0000      -0.988440       -26.8968
  25   2.0000      -0.959929       -26.1210
  26   2.0000      -0.908193       -24.7132
  27   2.0000      -0.840686       -22.8762
  28   2.0000      -0.790347       -21.5064
  29   2.0000      -0.769990       -20.9525
  30   2.0000      -0.722875       -19.6704
  31   2.0000      -0.698188       -18.9987
  32   2.0000      -0.673214       -18.3191
  33   2.0000      -0.666685       -18.1414
  34   2.0000      -0.631971       -17.1968
  35   2.0000      -0.625098       -17.0098
  36   2.0000      -0.624543       -16.9947
  37   2.0000      -0.599566       -16.3150
  38   2.0000      -0.592391       -16.1198
  39   2.0000      -0.569471       -15.4961
  40   2.0000      -0.566742       -15.4218
  41   2.0000      -0.561961       -15.2917
  42   2.0000      -0.526446       -14.3253
  43   2.0000      -0.518267       -14.1028
  44   2.0000      -0.493986       -13.4420
  45   2.0000      -0.489077       -13.3085
  46   2.0000      -0.474737       -12.9182
  47   2.0000      -0.460825       -12.5397
  48   2.0000      -0.447492       -12.1769
  49   2.0000      -0.437533       -11.9059
  50   2.0000      -0.426613       -11.6087
  51   2.0000      -0.425310       -11.5733
  52   2.0000      -0.414986       -11.2923
  53   2.0000      -0.409189       -11.1346
  54   2.0000      -0.351179        -9.5561
  55   2.0000      -0.347619        -9.4592
  56   0.0000      -0.010276        -0.2796
  57   0.0000       0.008120         0.2210
  58   0.0000       0.016145         0.4393
  59   0.0000       0.024470         0.6659
  60   0.0000       0.030739         0.8365

MULLIKEN ATOMIC CHARGES
-----------------------
   0 C :    0.777868
   1 C :   -0.910515
   2 H :    0.439550
   3 C :   -0.180498
   4 H :    0.214082
   5 C :    1.624048
   6 C :    0.557354
   7 C :   -1.131721
   8 H :    0.137675
   9 C :   -0.712151
  10 H :    0.478885
  11 S :    1.941264
  12 O :   -0.942503
  13 O :   -0.948443
  14 N :   -0.566361
  15 H :    0.141225
  16 H :    0.145481
  17 O :   -0.342823
  18 O :   -0.937602
  19 C :   -0.875256
  20 H :    0.346859
  21 H :    0.374187
  22 H :    0.369395
Sum of atomic charges:   -0.0000000

LOEWDIN ATOMIC CHARGES
----------------------
   0 C :   -0.242205
   1 C :    0.176602
   2 H :   -0.193084
   3 C :    0.221708
   4 H :   -0.183767
   5 C :   -0.126008
   6 C :   -0.830091
   7 C :    0.219796
   8 H :   -0.176482
   9 C :    0.179299
  10 H :   -0.191072
  11 S :    0.125337
  12 O :    0.074663
  13 O :    0.074692
  14 N :    0.688154
  15 H :   -0.351944
  16 H :   -0.351841
  17 O :    0.575442
  18 O :    0.490164
  19 C :    0.355894
  20 H :   -0.181752
  21 H :   -0.176593
  22 H :   -0.176914

  Mayer bond orders larger than 0.100000
B(  0-C ,  1-C ) :   0.8564 B(  0-C ,  7-C ) :  -0.1789 B(  0-C ,  9-C ) :   1.0135
B(  0-C , 11-S ) :   0.9617 B(  0-C , 12-O ) :   0.2416 B(  0-C , 13-O ) :   0.2937
B(  1-C ,  2-H ) :   0.7277 B(  1-C ,  3-C ) :   1.0809 B(  1-C ,  7-C ) :   0.2164
B(  3-C ,  4-H ) :   1.2865 B(  3-C ,  5-C ) :   0.6788 B(  3-C ,  6-C ) :   0.2112
B(  3-C ,  7-C ) :  -0.6995 B(  3-C , 17-O ) :  -0.2216 B(  3-C , 18-O ) :  -0.1249
B(  4-H ,  5-C ) :  -0.2999 B(  4-H ,  7-C ) :   0.1719 B(  4-H ,  8-H ) :   0.1448
B(  5-C ,  6-C ) :   0.2459 B(  5-C ,  7-C ) :   0.2372 B(  5-C ,  8-H ) :  -0.2039
B(  5-C , 17-O ) :   0.2071 B(  6-C ,  7-C ) :   0.4240 B(  6-C , 17-O ) :   1.0521
B(  6-C , 18-O ) :   1.2429 B(  7-C ,  8-H ) :   1.3473 B(  7-C ,  9-C ) :   1.5448
B(  7-C , 17-O ) :   0.1116 B(  8-H , 18-O ) :   0.1487 B(  9-C , 10-H ) :   0.6808
B( 11-S , 12-O ) :   1.2277 B( 11-S , 13-O ) :   1.2298 B( 11-S , 14-N ) :   0.9990
B( 14-N , 15-H ) :   0.9630 B( 14-N , 16-H ) :   0.9577 B( 17-O , 19-C ) :   0.8929
B( 19-C , 20-H ) :   0.8993 B( 19-C , 21-H ) :   0.8653 B( 19-C , 22-H ) :   0.8707

MP2 TOTAL ENERGY:    -1062.945521416 Eh
Dispersion correction           -0.016391670
FINAL SINGLE POINT ENERGY     -1062.961913086175

DIPOLE MOMENT
-------------
                                X             Y             Z
Electronic contribution:      2.03203      -1.62543       9.00551
Nuclear contribution   :     -3.21593       2.67731     -10.64152
                        -----------------------------------------
Total Dipole Moment    :     -1.18390       1.05188      -1.63600
                        -----------------------------------------
Magnitude (a.u.)       :      2.27697
Magnitude (Debye)      :      5.78760

Rotational constants in cm-1:     0.066405     0.008792     0.008175
Rotational constants in MHz :  1990.785442   263.571459   245.083528

                             ****ORCA TERMINATED NORMALLY****
TOTAL RUN TIME: 0 days 0 hours 3 minutes 46 seconds 379 msec
