                         Program Version 5.0.3 -  RELEASE  -
|  1> !PAL8
|  2> !RI-DSD-PBEP86 D3BJ aug-cc-pVTZ aug-cc-pVTZ/C TightSCF
|  3> %maxcore 5000
|  4>
|  5>
|  6> * xyz 0 1
|  7> C -0.727187419  0.9187725276 -1.4090454649
|  8> S -1.1311661348  1.3604528958  0.2555459064
|  9> O -0.6900116525  0.2313106549  1.0464987606
| 10> O -0.6865135558  2.7197151787  0.4715770659
| 11> N -2.7807476833  1.4001216895  0.3512181122
| 12> H -3.2237310879  0.5033727121  0.1708598257
| 13> H -3.1976920664  2.1758208978 -0.1563260014
| 14> O -1.0419895587  1.8075367715 -2.3850090166
| 15> C -0.6537278173  1.2579660627 -3.5526043734
| 16> C -0.1014743925  0.0350168469 -3.3254310426
| 17> C -0.1507898809 -0.2002289672 -1.914732476
| 18> S  0.5190186231 -1.0318590086 -4.5879681645
| 19> C  2.2795919087 -0.9254922787 -4.4281111439
| 20> O  0.1332256131 -0.4106465115 -5.8530728175
| 21> O  0.1151698017 -2.3883726492 -4.2342464736
| 22> C  2.9673107666  0.0694897682 -5.1148679656
| 23> C  4.344061551  0.1630965631 -4.957317524
| 24> C  5.0165736995 -0.735833328 -4.1238744356
| 25> C  4.3243592311 -1.7518807266 -3.4406682629
| 26> C  2.9466886104 -1.8287437063 -3.6003604545
| 27> O  6.3532798153 -0.6671896309 -3.9242254912
| 28> C  5.0876753418 -2.7372968513 -2.5929586553
| 29> N  5.796854856 -3.717512099 -3.4065650846
| 30> C  4.8778542544 -4.6283624936 -4.0679386585
| 31> C  6.7555018578 -4.4501434853 -2.597795724
| 32> H -0.8323645595  1.8243591838 -4.454202988
| 33> H  0.1843614389 -1.0663122782 -1.3617923093
| 34> H  2.4311027008  0.7484580922 -5.7711770421
| 35> H  4.9019937713  0.9326460764 -5.4855822635
| 36> H  2.3852356434 -2.6140076998 -3.0983574077
| 37> H  6.7337209017  0.0644274226 -4.4311466401
| 38> H  4.3888889927 -3.2295784677 -1.8874991939
| 39> H  5.8303177513 -2.1956615874 -1.9980902546
| 40> H  4.1995996095 -4.075500162 -4.7233548613
| 41> H  4.2708175472 -5.2075234039 -3.3444089507
| 42> H  5.4453739754 -5.3321863189 -4.6830015943
| 43> H  7.4748993572 -3.7537687618 -2.1572987798
| 44> H  7.3023586965 -5.1552355056 -3.2302040533
| 45> H  6.2714334921 -5.0207934224 -1.7816091019
| 46> *
| 47>
| 48>                          ****END OF INPUT****

CARTESIAN COORDINATES (ANGSTROEM)
---------------------------------
  C     -0.727187    0.918773   -1.409045
  S     -1.131166    1.360453    0.255546
  O     -0.690012    0.231311    1.046499
  O     -0.686514    2.719715    0.471577
  N     -2.780748    1.400122    0.351218
  H     -3.223731    0.503373    0.170860
  H     -3.197692    2.175821   -0.156326
  O     -1.041990    1.807537   -2.385009
  C     -0.653728    1.257966   -3.552604
  C     -0.101474    0.035017   -3.325431
  C     -0.150790   -0.200229   -1.914732
  S      0.519019   -1.031859   -4.587968
  C      2.279592   -0.925492   -4.428111
  O      0.133226   -0.410647   -5.853073
  O      0.115170   -2.388373   -4.234246
  C      2.967311    0.069490   -5.114868
  C      4.344062    0.163097   -4.957318
  C      5.016574   -0.735833   -4.123874
  C      4.324359   -1.751881   -3.440668
  C      2.946689   -1.828744   -3.600360
  O      6.353280   -0.667190   -3.924225
  C      5.087675   -2.737297   -2.592959
  N      5.796855   -3.717512   -3.406565
  C      4.877854   -4.628362   -4.067939
  C      6.755502   -4.450143   -2.597796
  H     -0.832365    1.824359   -4.454203
  H      0.184361   -1.066312   -1.361792
  H      2.431103    0.748458   -5.771177
  H      4.901994    0.932646   -5.485582
  H      2.385236   -2.614008   -3.098357
  H      6.733721    0.064427   -4.431147
  H      4.388889   -3.229578   -1.887499
  H      5.830318   -2.195662   -1.998090
  H      4.199600   -4.075500   -4.723355
  H      4.270818   -5.207523   -3.344409
  H      5.445374   -5.332186   -4.683002
  H      7.474899   -3.753769   -2.157299
  H      7.302359   -5.155236   -3.230204
  H      6.271433   -5.020793   -1.781609

 Total Charge           Charge          ....    0
 Multiplicity           Mult            ....    1
 Number of Electrons    NEL             ....  188
 Basis Dimension        Dim             .... 1434

ORBITAL ENERGIES
----------------

  NO   OCC          E(Eh)            E(eV)
   0   2.0000     -91.063031     -2477.9510
   1   2.0000     -91.035829     -2477.2108
   2   2.0000     -20.146496      -548.2140
   3   2.0000     -20.081227      -546.4380
   4   2.0000     -20.032970      -545.1248
   5   2.0000     -20.032118      -545.1016
   6   2.0000     -20.022087      -544.8287
   7   2.0000     -20.021772      -544.8201
   8   2.0000     -15.153215      -412.3399
   9   2.0000     -15.092222      -410.6802
  10   2.0000     -10.947116      -297.8862
  11   2.0000     -10.944894      -297.8257
  12   2.0000     -10.934537      -297.5439
  13   2.0000     -10.893370      -296.4237
  14   2.0000     -10.891496      -296.3727
  15   2.0000     -10.879943      -296.0583
  16   2.0000     -10.877584      -295.9941
  17   2.0000     -10.873524      -295.8836
  18   2.0000     -10.867917      -295.7311
  19   2.0000     -10.864042      -295.6256
  20   2.0000     -10.862721      -295.5897
  21   2.0000     -10.848256      -295.1960
  22   2.0000     -10.845969      -295.1338
  23   2.0000      -8.804828      -239.5916
  24   2.0000      -8.781534      -238.9577
  25   2.0000      -6.591133      -179.3538
  26   2.0000      -6.590076      -179.3251
  27   2.0000      -6.588004      -179.2687
  28   2.0000      -6.566964      -178.6962
  29   2.0000      -6.566227      -178.6761
  30   2.0000      -6.564890      -178.6398
  31   2.0000      -1.398404       -38.0525
  32   2.0000      -1.355635       -36.8887
  33   2.0000      -1.333031       -36.2736
  34   2.0000      -1.312410       -35.7125
  35   2.0000      -1.242073       -33.7985
  36   2.0000      -1.225421       -33.3454
  37   2.0000      -1.131461       -30.7886
  38   2.0000      -1.128076       -30.6965
  39   2.0000      -1.080181       -29.3932
  40   2.0000      -1.047069       -28.4922
  41   2.0000      -0.985205       -26.8088
  42   2.0000      -0.975120       -26.5344
  43   2.0000      -0.958125       -26.0719
  44   2.0000      -0.874675       -23.8011
  45   2.0000      -0.866752       -23.5855
  46   2.0000      -0.862969       -23.4826
  47   2.0000      -0.837754       -22.7964
  48   2.0000      -0.801037       -21.7973
  49   2.0000      -0.782817       -21.3015
  50   2.0000      -0.760594       -20.6968
  51   2.0000      -0.740699       -20.1554
  52   2.0000      -0.731308       -19.8999
  53   2.0000      -0.702995       -19.1295
  54   2.0000      -0.691438       -18.8150
  55   2.0000      -0.676381       -18.4053
  56   2.0000      -0.656693       -17.8695
  57   2.0000      -0.651704       -17.7338
  58   2.0000      -0.636499       -17.3200
  59   2.0000      -0.630257       -17.1502
  60   2.0000      -0.618007       -16.8168
  61   2.0000      -0.609998       -16.5989
  62   2.0000      -0.591969       -16.1083
  63   2.0000      -0.589111       -16.0305
  64   2.0000      -0.584716       -15.9109
  65   2.0000      -0.581349       -15.8193
  66   2.0000      -0.579129       -15.7589
  67   2.0000      -0.569792       -15.5048
  68   2.0000      -0.563932       -15.3454
  69   2.0000      -0.552919       -15.0457
  70   2.0000      -0.549160       -14.9434
  71   2.0000      -0.540028       -14.6949
  72   2.0000      -0.521266       -14.1844
  73   2.0000      -0.515435       -14.0257
  74   2.0000      -0.494102       -13.4452
  75   2.0000      -0.481289       -13.0966
  76   2.0000      -0.473736       -12.8910
  77   2.0000      -0.472163       -12.8482
  78   2.0000      -0.468013       -12.7353
  79   2.0000      -0.459988       -12.5169
  80   2.0000      -0.458767       -12.4837
  81   2.0000      -0.452487       -12.3128
  82   2.0000      -0.450152       -12.2492
  83   2.0000      -0.448319       -12.1994
  84   2.0000      -0.446104       -12.1391
  85   2.0000      -0.436505       -11.8779
  86   2.0000      -0.433048       -11.7838
  87   2.0000      -0.425214       -11.5707
  88   2.0000      -0.411048       -11.1852
  89   2.0000      -0.402908       -10.9637
  90   2.0000      -0.346814        -9.4373
  91   2.0000      -0.342553        -9.3213
  92   2.0000      -0.316308        -8.6072
  93   2.0000      -0.314787        -8.5658
  94   0.0000       0.007383         0.2009
  95   0.0000       0.010169         0.2767
  96   0.0000       0.012544         0.3413
  97   0.0000       0.019650         0.5347
  98   0.0000       0.025104         0.6831

MULLIKEN ATOMIC CHARGES
-----------------------
   0 C :    0.447390
   1 S :    2.168573
   2 O :   -0.917640
   3 O :   -0.940049
   4 N :   -0.604748
   5 H :    0.143283
   6 H :    0.149539
   7 O :   -0.627181
   8 C :   -0.707969
   9 C :    0.512816
  10 C :   -0.904307
  11 S :    2.306473
  12 C :    0.824229
  13 O :   -1.095069
  14 O :   -1.110721
  15 C :   -0.482612
  16 C :   -0.961554
  17 C :    0.305177
  18 C :    1.085682
  19 C :   -0.680035
  20 O :   -0.798112
  21 C :   -0.471337
  22 N :   -0.165167
  23 C :   -1.114157
  24 C :   -1.130081
  25 H :    0.708749
  26 H :    0.335988
  27 H :    0.382679
  28 H :    0.610549
  29 H :    0.003887
  30 H :    0.139385
  31 H :    0.226132
  32 H :    0.331653
  33 H :    0.475935
  34 H :    0.336051
  35 H :    0.259281
  36 H :    0.308308
  37 H :    0.345500
  38 H :    0.303480
Sum of atomic charges:   -0.0000000

LOEWDIN ATOMIC CHARGES
----------------------
   0 C :   -0.502214
   1 S :    0.090709
   2 O :    0.074731
   3 O :    0.068128
   4 N :    0.684447
   5 H :   -0.346435
   6 H :   -0.349168
   7 O :    0.568857
   8 C :   -0.032771
   9 C :   -0.282274
  10 C :    0.150162
  11 S :    0.241065
  12 C :   -0.254031
  13 O :    0.075084
  14 O :    0.077001
  15 C :    0.165407
  16 C :    0.237809
  17 C :   -0.334884
  18 C :   -0.088356
  19 C :    0.173602
  20 O :    0.881111
  21 C :    0.131772
  22 N :    0.239963
  23 C :    0.442594
  24 C :    0.438769
  25 H :   -0.166424
  26 H :   -0.166969
  27 H :   -0.184299
  28 H :   -0.173917
  29 H :   -0.178340
  30 H :   -0.447617
  31 H :   -0.129746
  32 H :   -0.156277
  33 H :   -0.170328
  34 H :   -0.143707
  35 H :   -0.160666
  36 H :   -0.162831
  37 H :   -0.163871
  38 H :   -0.146085

  Mayer bond orders larger than 0.100000
B(  0-C ,  1-S ) :   0.8316 B(  0-C ,  7-O ) :   0.7205 B(  0-C ,  8-C ) :   0.1800
B(  0-C ,  9-C ) :  -0.1953 B(  0-C , 10-C ) :   1.3371 B(  1-S ,  2-O ) :   1.3055
B(  1-S ,  3-O ) :   1.3248 B(  1-S ,  4-N ) :   0.8620 B(  4-N ,  5-H ) :   0.9621
B(  4-N ,  6-H ) :   0.9617 B(  7-O ,  8-C ) :   1.0738 B(  8-C ,  9-C ) :   0.8327
B(  8-C , 10-C ) :   0.2770 B(  8-C , 11-S ) :  -0.1266 B(  8-C , 25-H ) :   0.3665
B(  9-C , 10-C ) :   0.7243 B(  9-C , 11-S ) :   1.3000 B(  9-C , 12-C ) :   0.2866
B(  9-C , 13-O ) :   0.1735 B(  9-C , 14-O ) :   0.1091 B( 10-C , 26-H ) :   1.0768
B( 11-S , 12-C ) :   0.8754 B( 11-S , 13-O ) :   0.6521 B( 11-S , 14-O ) :   0.7933
B( 11-S , 15-C ) :  -0.1011 B( 12-C , 13-O ) :   0.1471 B( 12-C , 14-O ) :   0.2661
B( 12-C , 15-C ) :   0.8045 B( 12-C , 18-C ) :   0.2383 B( 12-C , 19-C ) :   0.4560
B( 12-C , 29-H ) :  -0.1496 B( 13-O , 16-C ) :  -0.1159 B( 14-O , 18-C ) :  -0.1137
B( 14-O , 29-H ) :   0.1049 B( 15-C , 16-C ) :   1.0474 B( 15-C , 19-C ) :  -0.1096
B( 15-C , 27-H ) :   0.8200 B( 16-C , 17-C ) :   1.2205 B( 16-C , 18-C ) :   0.2758
B( 16-C , 19-C ) :  -0.2524 B( 16-C , 28-H ) :   0.4367 B( 17-C , 18-C ) :   1.6091
B( 17-C , 19-C ) :  -0.1369 B( 17-C , 20-O ) :   0.4332 B( 17-C , 21-C ) :   0.2398
B( 17-C , 28-H ) :   0.1533 B( 18-C , 19-C ) :   0.6279 B( 18-C , 21-C ) :   0.1699
B( 18-C , 29-H ) :  -0.1130 B( 18-C , 31-H ) :  -0.1377 B( 19-C , 21-C ) :   0.1018
B( 19-C , 29-H ) :   1.4292 B( 20-O , 30-H ) :   1.0547 B( 21-C , 22-N ) :   1.0985
B( 21-C , 24-C ) :   0.1073 B( 21-C , 31-H ) :   1.0144 B( 21-C , 32-H ) :   0.9713
B( 22-N , 23-C ) :   0.8774 B( 22-N , 24-C ) :   1.0260 B( 23-C , 33-H ) :   0.7599
B( 23-C , 34-H ) :   0.8838 B( 23-C , 35-H ) :   1.0377 B( 24-C , 36-H ) :   0.9449
B( 24-C , 37-H ) :   0.9055 B( 24-C , 38-H ) :   0.9122

MP2 TOTAL ENERGY:    -1860.177043794 Eh
Dispersion correction           -0.030371819
FINAL SINGLE POINT ENERGY     -1860.207415612706

DIPOLE MOMENT
-------------
                                X             Y             Z
Electronic contribution:    -26.04277      21.16754       2.53435
Nuclear contribution   :     26.70706     -20.65771      -3.30674
                        -----------------------------------------
Total Dipole Moment    :      0.66430       0.50983      -0.77239
                        -----------------------------------------
Magnitude (a.u.)       :      1.13921
Magnitude (Debye)      :      2.89565

Rotational constants in cm-1:     0.011830     0.003546     0.003222
Rotational constants in MHz :   354.641253   106.316505    96.602488

                             ****ORCA TERMINATED NORMALLY****
TOTAL RUN TIME: 0 days 0 hours 13 minutes 4 seconds 674 msec
