                         Program Version 5.0.3 -  RELEASE  -
|  1> !PAL8
|  2> !RI-DSD-PBEP86 D3BJ aug-cc-pVTZ aug-cc-pVTZ/C TightSCF
|  3> %maxcore 3000
|  4>
|  5>
|  6> * xyz 0 1
|  7> C -1.3182146516  0.743883508 -0.9879873695
|  8> C -2.4994058756  0.8177598896 -1.725539599
|  9> H -3.4506185691  0.93061898 -1.2135133308
| 10> C -2.4265956939  0.7749017966 -3.1121716089
| 11> H -3.3223643131  0.8334967316 -3.7224155652
| 12> C -1.186551888  0.6677783588 -3.7522676031
| 13> C -1.1678677769  0.6286725249 -5.2582540786
| 14> C -0.0139745256  0.609765128 -2.99337672
| 15> H  0.9548416541  0.542884341 -3.4786884734
| 16> C -0.0737648916  0.647045904 -1.6019910458
| 17> H  0.8278230045  0.626390726 -0.9971572466
| 18> S -1.4056842319  0.7537968668  0.7995482413
| 19> O -0.0996027344  1.1527052827  1.2905829875
| 20> O -2.6357194546  1.4298419651  1.1666537824
| 21> N -1.6024120125 -0.8268499464  1.2800369241
| 22> H -0.8039122937 -1.4144808098  1.0553294346
| 23> H -2.4873546939 -1.2274466264  0.9800779746
| 24> O -2.2101964382  0.6552986524 -5.8788608372
| 25> C  0.1658162227  0.5558898433 -5.9669906284
| 26> H  0.7094782313 -0.3499362812 -5.6778888395
| 27> H  0.7908473566  1.4167973975 -5.7070984731
| 28> H -0.0109884245  0.5452257672 -7.0425889255
| 29> *
| 30>
| 31>                          ****END OF INPUT****

CARTESIAN COORDINATES (ANGSTROEM)
---------------------------------
  C     -1.318215    0.743884   -0.987987
  C     -2.499406    0.817760   -1.725540
  H     -3.450619    0.930619   -1.213513
  C     -2.426596    0.774902   -3.112172
  H     -3.322364    0.833497   -3.722416
  C     -1.186552    0.667778   -3.752268
  C     -1.167868    0.628673   -5.258254
  C     -0.013975    0.609765   -2.993377
  H      0.954842    0.542884   -3.478688
  C     -0.073765    0.647046   -1.601991
  H      0.827823    0.626391   -0.997157
  S     -1.405684    0.753797    0.799548
  O     -0.099603    1.152705    1.290583
  O     -2.635719    1.429842    1.166654
  N     -1.602412   -0.826850    1.280037
  H     -0.803912   -1.414481    1.055329
  H     -2.487355   -1.227447    0.980078
  O     -2.210196    0.655299   -5.878861
  C      0.165816    0.555890   -5.966991
  H      0.709478   -0.349936   -5.677889
  H      0.790847    1.416797   -5.707098
  H     -0.010988    0.545226   -7.042589

 Total Charge           Charge          ....    0
 Multiplicity           Mult            ....    1
 Number of Electrons    NEL             ....  104
 Basis Dimension        Dim             ....  809

ORBITAL ENERGIES
----------------

  NO   OCC          E(Eh)            E(eV)
   0   2.0000     -91.049536     -2477.5838
   1   2.0000     -20.030521      -545.0582
   2   2.0000     -20.024528      -544.8951
   3   2.0000     -20.024254      -544.8877
   4   2.0000     -15.146173      -412.1483
   5   2.0000     -10.951383      -298.0023
   6   2.0000     -10.897862      -296.5459
   7   2.0000     -10.880157      -296.0641
   8   2.0000     -10.879478      -296.0456
   9   2.0000     -10.878750      -296.0258
  10   2.0000     -10.877527      -295.9926
  11   2.0000     -10.871692      -295.8338
  12   2.0000     -10.852029      -295.2987
  13   2.0000      -8.792462      -239.2550
  14   2.0000      -6.578624      -179.0135
  15   2.0000      -6.577298      -178.9774
  16   2.0000      -6.575682      -178.9334
  17   2.0000      -1.347106       -36.6566
  18   2.0000      -1.283999       -34.9394
  19   2.0000      -1.232657       -33.5423
  20   2.0000      -1.119334       -30.4586
  21   2.0000      -1.091694       -29.7065
  22   2.0000      -0.988591       -26.9009
  23   2.0000      -0.961395       -26.1609
  24   2.0000      -0.928036       -25.2531
  25   2.0000      -0.844074       -22.9684
  26   2.0000      -0.790483       -21.5101
  27   2.0000      -0.769963       -20.9518
  28   2.0000      -0.712118       -19.3777
  29   2.0000      -0.691158       -18.8074
  30   2.0000      -0.668044       -18.1784
  31   2.0000      -0.638062       -17.3626
  32   2.0000      -0.620536       -16.8856
  33   2.0000      -0.615264       -16.7422
  34   2.0000      -0.594484       -16.1767
  35   2.0000      -0.572484       -15.5781
  36   2.0000      -0.568575       -15.4717
  37   2.0000      -0.567732       -15.4488
  38   2.0000      -0.556270       -15.1369
  39   2.0000      -0.540344       -14.7035
  40   2.0000      -0.507503       -13.8099
  41   2.0000      -0.502881       -13.6841
  42   2.0000      -0.477238       -12.9863
  43   2.0000      -0.472710       -12.8631
  44   2.0000      -0.461924       -12.5696
  45   2.0000      -0.448550       -12.2057
  46   2.0000      -0.436970       -11.8906
  47   2.0000      -0.427645       -11.6368
  48   2.0000      -0.414604       -11.2819
  49   2.0000      -0.380554       -10.3554
  50   2.0000      -0.351716        -9.5707
  51   2.0000      -0.347834        -9.4650
  52   0.0000      -0.016259        -0.4424
  53   0.0000       0.005764         0.1568
  54   0.0000       0.014901         0.4055
  55   0.0000       0.024350         0.6626
  56   0.0000       0.028529         0.7763

MULLIKEN ATOMIC CHARGES
-----------------------
   0 C :    0.883236
   1 C :   -0.755238
   2 H :    0.548791
   3 C :   -0.987428
   4 H :    0.206395
   5 C :    1.412380
   6 C :    0.678359
   7 C :   -0.498196
   8 H :    0.103021
   9 C :   -0.985617
  10 H :    0.446979
  11 S :    1.947709
  12 O :   -0.952716
  13 O :   -0.946781
  14 N :   -0.575786
  15 H :    0.143293
  16 H :    0.145557
  17 O :   -0.945823
  18 C :   -0.829919
  19 H :    0.316055
  20 H :    0.324027
  21 H :    0.321702
Sum of atomic charges:    0.0000000

LOEWDIN ATOMIC CHARGES
----------------------
   0 C :   -0.242066
   1 C :    0.179956
   2 H :   -0.189379
   3 C :    0.220324
   4 H :   -0.181241
   5 C :   -0.109597
   6 C :   -0.516224
   7 C :    0.216876
   8 H :   -0.184486
   9 C :    0.178388
  10 H :   -0.193409
  11 S :    0.125185
  12 O :    0.074859
  13 O :    0.074704
  14 N :    0.687961
  15 H :   -0.351619
  16 H :   -0.351665
  17 O :    0.497419
  18 C :    0.574858
  19 H :   -0.167734
  20 H :   -0.166734
  21 H :   -0.176376

  Mayer bond orders larger than 0.100000
B(  0-C ,  1-C ) :   0.9764 B(  0-C ,  3-C ) :  -0.1759 B(  0-C ,  7-C ) :  -0.1362
B(  0-C ,  9-C ) :   0.7751 B(  0-C , 11-S ) :   0.9495 B(  0-C , 12-O ) :   0.2154
B(  0-C , 13-O ) :   0.2866 B(  1-C ,  2-H ) :   0.5251 B(  1-C ,  3-C ) :   1.3995
B(  1-C , 17-O ) :  -0.1283 B(  3-C ,  4-H ) :   1.2158 B(  3-C ,  5-C ) :   0.4540
B(  3-C ,  6-C ) :   0.2181 B(  3-C ,  7-C ) :  -0.3455 B(  3-C ,  9-C ) :   0.1406
B(  4-H ,  5-C ) :  -0.1449 B(  4-H , 17-O ) :   0.1481 B(  5-C ,  6-C ) :   0.4492
B(  5-C ,  7-C ) :   0.5442 B(  5-C ,  8-H ) :  -0.2138 B(  5-C , 17-O ) :   0.1510
B(  6-C ,  7-C ) :   0.1753 B(  6-C , 17-O ) :   0.9949 B(  6-C , 18-C ) :   0.8831
B(  7-C ,  8-H ) :   1.4640 B(  7-C ,  9-C ) :   1.1747 B(  7-C , 18-C ) :  -0.1190
B(  9-C , 10-H ) :   0.7308 B( 11-S , 12-O ) :   1.2336 B( 11-S , 13-O ) :   1.2317
B( 11-S , 14-N ) :   0.9870 B( 14-N , 15-H ) :   0.9636 B( 14-N , 16-H ) :   0.9566
B( 18-C , 19-H ) :   0.9534 B( 18-C , 20-H ) :   0.9431 B( 18-C , 21-H ) :   0.9072

MP2 TOTAL ENERGY:     -987.786946878 Eh
Dispersion correction           -0.016148907
FINAL SINGLE POINT ENERGY      -987.803095784921

DIPOLE MOMENT
-------------
                                X             Y             Z
Electronic contribution:     -3.55222       2.30427       8.59605
Nuclear contribution   :      4.45560      -3.78883      -9.73394
                        -----------------------------------------
Total Dipole Moment    :      0.90338      -1.48455      -1.13789
                        -----------------------------------------
Magnitude (a.u.)       :      2.07721
Magnitude (Debye)      :      5.27984

Rotational constants in cm-1:     0.069020     0.011294     0.010355
Rotational constants in MHz :  2069.157472   338.579907   310.449564

                             ****ORCA TERMINATED NORMALLY****
TOTAL RUN TIME: 0 days 0 hours 3 minutes 49 seconds 453 msec
