                         Program Version 5.0.3 -  RELEASE  -
|  1> !PAL8
|  2> !RI-DSD-PBEP86 D3BJ aug-cc-pVTZ aug-cc-pVTZ/C TightSCF
|  3> %maxcore 5000
|  4>
|  5> * xyz 0 1
|  6> S -1.7381530307  0.3694751264  1.2711715253
|  7> O -0.6151672833  0.8064593234  2.0806718703
|  8> O -3.0362669537  1.0177715565  1.3153683791
|  9> N -2.0064961787 -1.2155217445  1.6824873816
| 10> H -1.1717250975 -1.7906327898  1.731028332
| 11> C -1.1972049035  0.3861582167 -0.4355775387
| 12> H -0.2707176135 -0.183572425 -0.5198155963
| 13> H -1.022972471  1.4316969587 -0.6980592462
| 14> H -1.985503552 -0.0338884618 -1.0618473416
| 15> H -2.7974239161 -1.6488027605  1.2170282346
| 16> *
| 17>
| 18>
| 19>
| 20>                          ****END OF INPUT****

CARTESIAN COORDINATES (ANGSTROEM)
---------------------------------
  S     -1.738153    0.369475    1.271172
  O     -0.615167    0.806459    2.080672
  O     -3.036267    1.017772    1.315368
  N     -2.006496   -1.215522    1.682487
  H     -1.171725   -1.790633    1.731028
  C     -1.197205    0.386158   -0.435578
  H     -0.270718   -0.183572   -0.519816
  H     -1.022972    1.431697   -0.698059
  H     -1.985504   -0.033888   -1.061847
  H     -2.797424   -1.648803    1.217028

 Total Charge           Charge          ....    0
 Multiplicity           Mult            ....    1
 Number of Electrons    NEL             ....   50
 Basis Dimension        Dim             ....  349

ORBITAL ENERGIES
----------------

  NO   OCC          E(Eh)            E(eV)
   0   2.0000     -91.042942     -2477.4044
   1   2.0000     -20.016988      -544.6899
   2   2.0000     -20.016919      -544.6880
   3   2.0000     -15.142481      -412.0479
   4   2.0000     -10.881535      -296.1016
   5   2.0000      -8.785869      -239.0757
   6   2.0000      -6.572245      -178.8399
   7   2.0000      -6.570372      -178.7889
   8   2.0000      -6.569118      -178.7548
   9   2.0000      -1.339807       -36.4580
  10   2.0000      -1.224294       -33.3147
  11   2.0000      -1.115302       -30.3489
  12   2.0000      -0.946891       -25.7662
  13   2.0000      -0.773657       -21.0523
  14   2.0000      -0.669257       -18.2114
  15   2.0000      -0.657114       -17.8810
  16   2.0000      -0.611019       -16.6267
  17   2.0000      -0.585773       -15.9397
  18   2.0000      -0.554934       -15.1005
  19   2.0000      -0.546006       -14.8576
  20   2.0000      -0.456739       -12.4285
  21   2.0000      -0.439660       -11.9638
  22   2.0000      -0.423607       -11.5269
  23   2.0000      -0.418513       -11.3883
  24   2.0000      -0.409703       -11.1486
  25   0.0000       0.005134         0.1397
  26   0.0000       0.025984         0.7071
  27   0.0000       0.030154         0.8205
  28   0.0000       0.043760         1.1908
  29   0.0000       0.052581         1.4308

MULLIKEN ATOMIC CHARGES
-----------------------
   0 S :    2.122864
   1 O :   -0.908006
   2 O :   -0.905049
   3 N :   -0.528224
   4 H :    0.140398
   5 C :   -0.992116
   6 H :    0.308641
   7 H :    0.311363
   8 H :    0.312303
   9 H :    0.137826
Sum of atomic charges:    0.0000000

LOEWDIN ATOMIC CHARGES
----------------------
   0 S :    0.078341
   1 O :    0.048981
   2 O :    0.049037
   3 N :    0.676166
   4 H :   -0.353936
   5 C :    0.479354
   6 H :   -0.209351
   7 H :   -0.205338
   8 H :   -0.209373
   9 H :   -0.353881

  Mayer bond orders larger than 0.100000
B(  0-S ,  1-O ) :   1.3667 B(  0-S ,  2-O ) :   1.3699 B(  0-S ,  3-N ) :   0.9205
B(  0-S ,  5-C ) :   0.8375 B(  3-N ,  4-H ) :   0.9846 B(  3-N ,  9-H ) :   0.9886
B(  5-C ,  6-H ) :   0.8898 B(  5-C ,  7-H ) :   0.9013 B(  5-C ,  8-H ) :   0.8856

MP2 TOTAL ENERGY:     -643.904680924 Eh
Dispersion correction           -0.005186361
FINAL SINGLE POINT ENERGY      -643.909867285049

DIPOLE MOMENT
-------------
                                X             Y             Z
Electronic contribution:     -0.92427       1.83866       3.43205
Nuclear contribution   :      1.28050      -3.38175      -4.98456
                        -----------------------------------------
Total Dipole Moment    :      0.35623      -1.54309      -1.55251
                        -----------------------------------------
Magnitude (a.u.)       :      2.21773
Magnitude (Debye)      :      5.63703

Rotational constants in cm-1:     0.158044     0.145817     0.141609
Rotational constants in MHz :  4738.044196  4371.492927  4245.325077

                             ****ORCA TERMINATED NORMALLY****
TOTAL RUN TIME: 0 days 0 hours 0 minutes 32 seconds 934 msec
