                         Program Version 5.0.3 -  RELEASE  -
|  1> !PAL8
|  2> !RI-DSD-PBEP86 D3BJ aug-cc-pVTZ aug-cc-pVTZ/C TightSCF
|  3> %maxcore 5000
|  4>
|  5> * xyz 0 1
|  6> C -1.1596885069  0.5518999819 -0.8306417367
|  7> C -2.3643660518  0.8698874432 -1.4501521164
|  8> H -3.2761677833  0.9268293594 -0.8631382663
|  9> C -2.3743124038  1.0903513436 -2.8252840714
| 10> H -3.306384402  1.3643919519 -3.3117937855
| 11> C -1.1904552922  0.9947736112 -3.5616096493
| 12> C -1.1334327792  1.2335958509 -5.0471002038
| 13> C  0.0108651736  0.6856224758 -2.9181705417
| 14> H  0.9184926099  0.6295529706 -3.5109246004
| 15> C  0.0307640634  0.450363908 -1.5481123049
| 16> H  0.9482678929  0.1723804598 -1.0375746165
| 17> S -1.1343931275  0.3007665796  0.9398906666
| 18> O -2.4915869652 -0.013318726  1.347956556
| 19> O  0.0033623929 -0.5486945335  1.2392238924
| 20> N -0.7872958969  1.7739521847  1.6324580322
| 21> H -1.510114045  2.4698060276  1.4682963143
| 22> H  0.144011328  2.110595831  1.4019005111
| 23> N -2.2790202357  0.9970707442 -5.7414866057
| 24> O -0.1112876176  1.6268180041 -5.5887367632
| 25> C -2.2857778737  1.1414374806 -7.1869552147
| 26> H -3.3083325123  1.0231829491 -7.5473520658
| 27> H -1.637455312  0.4000267917 -7.6656667407
| 28> H -1.9206652147  2.1355307269 -7.4512449872
| 29> H -3.0110304409  0.4556675836 -5.3048847023
| 30> *
| 31>
| 32>                          ****END OF INPUT****

CARTESIAN COORDINATES (ANGSTROEM)
---------------------------------
  C     -1.159689    0.551900   -0.830642
  C     -2.364366    0.869887   -1.450152
  H     -3.276168    0.926829   -0.863138
  C     -2.374312    1.090351   -2.825284
  H     -3.306384    1.364392   -3.311794
  C     -1.190455    0.994774   -3.561610
  C     -1.133433    1.233596   -5.047100
  C      0.010865    0.685622   -2.918171
  H      0.918493    0.629553   -3.510925
  C      0.030764    0.450364   -1.548112
  H      0.948268    0.172380   -1.037575
  S     -1.134393    0.300767    0.939891
  O     -2.491587   -0.013319    1.347957
  O      0.003362   -0.548695    1.239224
  N     -0.787296    1.773952    1.632458
  H     -1.510114    2.469806    1.468296
  H      0.144011    2.110596    1.401901
  N     -2.279020    0.997071   -5.741487
  O     -0.111288    1.626818   -5.588737
  C     -2.285778    1.141437   -7.186955
  H     -3.308333    1.023183   -7.547352
  H     -1.637455    0.400027   -7.665667
  H     -1.920665    2.135531   -7.451245
  H     -3.011030    0.455668   -5.304885

 Total Charge           Charge          ....    0
 Multiplicity           Mult            ....    1
 Number of Electrons    NEL             ....  112
 Basis Dimension        Dim             ....  878

ORBITAL ENERGIES
----------------

  NO   OCC          E(Eh)            E(eV)
   0   2.0000     -91.047565     -2477.5302
   1   2.0000     -20.022615      -544.8431
   2   2.0000     -20.022373      -544.8365
   3   2.0000     -20.001657      -544.2728
   4   2.0000     -15.144067      -412.0910
   5   2.0000     -15.137839      -411.9215
   6   2.0000     -10.961668      -298.2822
   7   2.0000     -10.894534      -296.4553
   8   2.0000     -10.881309      -296.0955
   9   2.0000     -10.878724      -296.0251
  10   2.0000     -10.877280      -295.9858
  11   2.0000     -10.876301      -295.9592
  12   2.0000     -10.873048      -295.8707
  13   2.0000     -10.869520      -295.7747
  14   2.0000      -8.790503      -239.2018
  15   2.0000      -6.576662      -178.9601
  16   2.0000      -6.575337      -178.9240
  17   2.0000      -6.573729      -178.8802
  18   2.0000      -1.345054       -36.6008
  19   2.0000      -1.275445       -34.7066
  20   2.0000      -1.230628       -33.4871
  21   2.0000      -1.137023       -30.9400
  22   2.0000      -1.117268       -30.4024
  23   2.0000      -1.089227       -29.6394
  24   2.0000      -0.982014       -26.7220
  25   2.0000      -0.959133       -26.0993
  26   2.0000      -0.888047       -24.1650
  27   2.0000      -0.834732       -22.7142
  28   2.0000      -0.790038       -21.4980
  29   2.0000      -0.766617       -20.8607
  30   2.0000      -0.731312       -19.9000
  31   2.0000      -0.700410       -19.0591
  32   2.0000      -0.675188       -18.3728
  33   2.0000      -0.665651       -18.1133
  34   2.0000      -0.624750       -17.0003
  35   2.0000      -0.618920       -16.8417
  36   2.0000      -0.594946       -16.1893
  37   2.0000      -0.588288       -16.0081
  38   2.0000      -0.576436       -15.6856
  39   2.0000      -0.567674       -15.4472
  40   2.0000      -0.565030       -15.3753
  41   2.0000      -0.561653       -15.2834
  42   2.0000      -0.518088       -14.0979
  43   2.0000      -0.511435       -13.9168
  44   2.0000      -0.507370       -13.8062
  45   2.0000      -0.485519       -13.2116
  46   2.0000      -0.476343       -12.9620
  47   2.0000      -0.460013       -12.5176
  48   2.0000      -0.446725       -12.1560
  49   2.0000      -0.436197       -11.8695
  50   2.0000      -0.425772       -11.5858
  51   2.0000      -0.412936       -11.2366
  52   2.0000      -0.387694       -10.5497
  53   2.0000      -0.363112        -9.8808
  54   2.0000      -0.348767        -9.4904
  55   2.0000      -0.345629        -9.4050
  56   0.0000      -0.002277        -0.0620
  57   0.0000       0.006106         0.1661
  58   0.0000       0.013939         0.3793
  59   0.0000       0.023067         0.6277
  60   0.0000       0.027525         0.7490

MULLIKEN ATOMIC CHARGES
-----------------------
   0 C :    0.966706
   1 C :   -0.951207
   2 H :    0.421891
   3 C :   -0.665027
   4 H :    0.159911
   5 C :    1.748933
   6 C :    0.392311
   7 C :   -0.962936
   8 H :    0.184000
   9 C :   -0.787189
  10 H :    0.473298
  11 S :    1.958006
  12 O :   -0.952007
  13 O :   -0.948527
  14 N :   -0.582571
  15 H :    0.146321
  16 H :    0.148670
  17 N :   -0.180924
  18 O :   -0.833338
  19 C :   -1.000097
  20 H :    0.353425
  21 H :    0.319817
  22 H :    0.395088
  23 H :    0.195447
Sum of atomic charges:   -0.0000000

LOEWDIN ATOMIC CHARGES
----------------------
   0 C :   -0.244494
   1 C :    0.174583
   2 H :   -0.193447
   3 C :    0.220784
   4 H :   -0.176805
   5 C :   -0.106064
   6 C :   -0.678827
   7 C :    0.225023
   8 H :   -0.174441
   9 C :    0.179630
  10 H :   -0.188754
  11 S :    0.123918
  12 O :    0.073658
  13 O :    0.073738
  14 N :    0.688027
  15 H :   -0.352031
  16 H :   -0.351988
  17 N :    0.528148
  18 O :    0.477487
  19 C :    0.491549
  20 H :   -0.166902
  21 H :   -0.157622
  22 H :   -0.169422
  23 H :   -0.295751

  Mayer bond orders larger than 0.100000
B(  0-C ,  1-C ) :   0.7820 B(  0-C ,  3-C ) :  -0.1123 B(  0-C ,  7-C ) :  -0.1456
B(  0-C ,  9-C ) :   0.8604 B(  0-C , 11-S ) :   0.9228 B(  0-C , 12-O ) :   0.2211
B(  0-C , 13-O ) :   0.2484 B(  1-C ,  2-H ) :   0.7567 B(  1-C ,  3-C ) :   1.4092
B(  1-C ,  7-C ) :   0.1477 B(  3-C ,  4-H ) :   1.4071 B(  3-C ,  5-C ) :   0.6889
B(  3-C ,  6-C ) :   0.1442 B(  3-C ,  7-C ) :  -0.4122 B(  4-H ,  5-C ) :  -0.2100
B(  5-C ,  7-C ) :   0.5169 B(  5-C ,  8-H ) :  -0.1790 B(  5-C , 17-N ) :  -0.1438
B(  6-C ,  7-C ) :   0.1855 B(  6-C , 17-N ) :   1.1709 B(  6-C , 18-O ) :   1.3187
B(  6-C , 19-C ) :  -0.1294 B(  7-C ,  8-H ) :   1.2949 B(  7-C ,  9-C ) :   1.4459
B(  8-H , 18-O ) :   0.1074 B(  9-C , 10-H ) :   0.6935 B( 11-S , 12-O ) :   1.2220
B( 11-S , 13-O ) :   1.2404 B( 11-S , 14-N ) :   0.9804 B( 14-N , 15-H ) :   0.9605
B( 14-N , 16-H ) :   0.9532 B( 17-N , 19-C ) :   0.9881 B( 17-N , 23-H ) :   0.9419
B( 19-C , 20-H ) :   0.8906 B( 19-C , 21-H ) :   0.9156 B( 19-C , 22-H ) :   0.8479

MP2 TOTAL ENERGY:    -1043.087844157 Eh
Dispersion correction           -0.017167119
FINAL SINGLE POINT ENERGY     -1043.105011275835

DIPOLE MOMENT
-------------
                                X             Y             Z
Electronic contribution:      2.47725      -2.81109      12.29281
Nuclear contribution   :     -3.45855       3.89259     -13.63478
                        -----------------------------------------
Total Dipole Moment    :     -0.98130       1.08149      -1.34198
                        -----------------------------------------
Magnitude (a.u.)       :      1.98330
Magnitude (Debye)      :      5.04115

Rotational constants in cm-1:     0.066311     0.008676     0.008131
Rotational constants in MHz :  1987.966423   260.095163   243.763521

                             ****ORCA TERMINATED NORMALLY****
TOTAL RUN TIME: 0 days 0 hours 4 minutes 4 seconds 644 msec
