                         Program Version 5.0.3 -  RELEASE  -
|  1> !PAL8
|  2> !RI-DSD-PBEP86 D3BJ aug-cc-pVTZ aug-cc-pVTZ/C TightSCF
|  3> %maxcore 5000
|  4>
|  5>
|  6> * xyz 0 1
|  7> C -1.5173064328  1.3205062965 -1.939437543
|  8> S -1.7515622425  1.5507551438 -0.2076859596
|  9> O -0.9179288064  2.6530758136  0.2220790255
| 10> O -3.1882713947  1.5132253224 -0.023767385
| 11> N -1.1369399937  0.2064294162  0.542780783
| 12> H -0.1231170165  0.1520037818  0.4873491742
| 13> H -1.6028802055 -0.6545259619  0.2692140064
| 14> C -2.4279856204  1.1773763555 -2.9394716544
| 15> C -1.6458406602  1.0223814294 -4.1342487669
| 16> C -0.3380596801  1.0798517471 -3.7139422604
| 17> O -0.2229135299  1.2642174495 -2.3859460215
| 18> C -1.7156365089  0.8592905756 -5.5606641449
| 19> C -0.4772370391  0.7987337022 -6.1227141036
| 20> S  0.8427826553  0.96187452 -4.9603753257
| 21> H -3.500587479  1.1947883872 -2.8086501095
| 22> H -2.6281654999  0.7891955167 -6.1417655843
| 23> C -0.1129162404  0.5802683106 -7.5612643293
| 24> N  0.9738074453  1.4528691883 -7.9755627417
| 25> C  0.5654094333  2.8556006029 -8.0195495081
| 26> C  1.7548751591  3.7196922539 -8.4085539944
| 27> O  2.2837585777  3.322885455 -9.6590615625
| 28> C  2.6888233158  1.9695666531 -9.6265678778
| 29> C  1.5231625508  1.0582344256 -9.268870802
| 30> H -1.0235447325  0.720115201 -8.1754698255
| 31> H  0.2206071406 -0.4552527956 -7.7056242987
| 32> H  0.1954114243  3.1547717475 -7.0329020461
| 33> H -0.2506671306  3.001352657 -8.7534726562
| 34> H  2.5327263877  3.6424151267 -7.6327594514
| 35> H  1.4565494693  4.7652625053 -8.5128611451
| 36> H  3.4948007595  1.8390453128 -8.8874853381
| 37> H  3.0736981469  1.7332752055 -10.6213831518
| 38> H  1.8699866995  0.0204914179 -9.2065184964
| 39> H  0.7556940483  1.1210072372 -10.064248905
| 40> *
| 41>
| 42>                          ****END OF INPUT****

CARTESIAN COORDINATES (ANGSTROEM)
---------------------------------
  C     -1.517306    1.320506   -1.939438
  S     -1.751562    1.550755   -0.207686
  O     -0.917929    2.653076    0.222079
  O     -3.188271    1.513225   -0.023767
  N     -1.136940    0.206429    0.542781
  H     -0.123117    0.152004    0.487349
  H     -1.602880   -0.654526    0.269214
  C     -2.427986    1.177376   -2.939472
  C     -1.645841    1.022381   -4.134249
  C     -0.338060    1.079852   -3.713942
  O     -0.222914    1.264217   -2.385946
  C     -1.715637    0.859291   -5.560664
  C     -0.477237    0.798734   -6.122714
  S      0.842783    0.961875   -4.960375
  H     -3.500587    1.194788   -2.808650
  H     -2.628165    0.789196   -6.141766
  C     -0.112916    0.580268   -7.561264
  N      0.973807    1.452869   -7.975563
  C      0.565409    2.855601   -8.019550
  C      1.754875    3.719692   -8.408554
  O      2.283759    3.322885   -9.659062
  C      2.688823    1.969567   -9.626568
  C      1.523163    1.058234   -9.268871
  H     -1.023545    0.720115   -8.175470
  H      0.220607   -0.455253   -7.705624
  H      0.195411    3.154772   -7.032902
  H     -0.250667    3.001353   -8.753473
  H      2.532726    3.642415   -7.632759
  H      1.456549    4.765263   -8.512861
  H      3.494801    1.839045   -8.887485
  H      3.073698    1.733275  -10.621383
  H      1.869987    0.020491   -9.206518
  H      0.755694    1.121007  -10.064249

 Total Charge           Charge          ....    0
 Multiplicity           Mult            ....    1
 Number of Electrons    NEL             ....  158
 Basis Dimension        Dim             .... 1204

ORBITAL ENERGIES
----------------

  NO   OCC          E(Eh)            E(eV)
   0   2.0000     -91.052348     -2477.6604
   1   2.0000     -90.858207     -2472.3775
   2   2.0000     -20.130514      -547.7791
   3   2.0000     -20.030523      -545.0582
   4   2.0000     -20.022978      -544.8529
   5   2.0000     -20.021644      -544.8166
   6   2.0000     -15.143891      -412.0862
   7   2.0000     -15.108419      -411.1210
   8   2.0000     -10.938964      -297.6643
   9   2.0000     -10.930860      -297.4438
  10   2.0000     -10.890680      -296.3505
  11   2.0000     -10.886370      -296.2332
  12   2.0000     -10.883060      -296.1431
  13   2.0000     -10.881368      -296.0971
  14   2.0000     -10.879653      -296.0504
  15   2.0000     -10.866465      -295.6916
  16   2.0000     -10.865574      -295.6673
  17   2.0000     -10.862814      -295.5922
  18   2.0000     -10.862454      -295.5824
  19   2.0000      -8.794196      -239.3022
  20   2.0000      -8.633429      -234.9276
  21   2.0000      -6.580511      -179.0648
  22   2.0000      -6.579352      -179.0333
  23   2.0000      -6.577430      -178.9810
  24   2.0000      -6.416104      -174.5911
  25   2.0000      -6.413580      -174.5224
  26   2.0000      -6.412571      -174.4949
  27   2.0000      -1.380233       -37.5580
  28   2.0000      -1.344387       -36.5826
  29   2.0000      -1.267995       -34.5039
  30   2.0000      -1.231274       -33.5047
  31   2.0000      -1.148124       -31.2420
  32   2.0000      -1.118085       -30.4246
  33   2.0000      -1.088801       -29.6278
  34   2.0000      -1.013054       -27.5666
  35   2.0000      -0.957664       -26.0594
  36   2.0000      -0.952380       -25.9156
  37   2.0000      -0.911337       -24.7987
  38   2.0000      -0.899744       -24.4833
  39   2.0000      -0.830298       -22.5936
  40   2.0000      -0.811988       -22.0953
  41   2.0000      -0.794965       -21.6321
  42   2.0000      -0.755687       -20.5633
  43   2.0000      -0.721692       -19.6382
  44   2.0000      -0.713727       -19.4215
  45   2.0000      -0.709413       -19.3041
  46   2.0000      -0.665739       -18.1157
  47   2.0000      -0.659512       -17.9462
  48   2.0000      -0.637750       -17.3541
  49   2.0000      -0.635261       -17.2863
  50   2.0000      -0.621569       -16.9137
  51   2.0000      -0.610957       -16.6250
  52   2.0000      -0.602873       -16.4050
  53   2.0000      -0.592356       -16.1188
  54   2.0000      -0.587887       -15.9972
  55   2.0000      -0.574976       -15.6459
  56   2.0000      -0.567698       -15.4478
  57   2.0000      -0.561279       -15.2732
  58   2.0000      -0.548528       -14.9262
  59   2.0000      -0.533080       -14.5059
  60   2.0000      -0.521027       -14.1779
  61   2.0000      -0.513921       -13.9845
  62   2.0000      -0.492132       -13.3916
  63   2.0000      -0.483001       -13.1431
  64   2.0000      -0.471502       -12.8302
  65   2.0000      -0.461002       -12.5445
  66   2.0000      -0.460354       -12.5269
  67   2.0000      -0.453579       -12.3425
  68   2.0000      -0.447866       -12.1871
  69   2.0000      -0.446023       -12.1369
  70   2.0000      -0.437876       -11.9152
  71   2.0000      -0.426772       -11.6131
  72   2.0000      -0.421464       -11.4686
  73   2.0000      -0.415613       -11.3094
  74   2.0000      -0.395095       -10.7511
  75   2.0000      -0.371149       -10.0995
  76   2.0000      -0.333490        -9.0747
  77   2.0000      -0.320708        -8.7269
  78   2.0000      -0.295514        -8.0414
  79   0.0000       0.008623         0.2346
  80   0.0000       0.015621         0.4251
  81   0.0000       0.018510         0.5037
  82   0.0000       0.022950         0.6245
  83   0.0000       0.028109         0.7649

MULLIKEN ATOMIC CHARGES
-----------------------
   0 C :    0.584194
   1 S :    2.149382
   2 O :   -0.934461
   3 O :   -0.927610
   4 N :   -0.594022
   5 H :    0.156556
   6 H :    0.130846
   7 C :   -1.329090
   8 C :    0.910400
   9 C :    0.283376
  10 O :   -0.679873
  11 C :   -1.499644
  12 C :    1.545770
  13 S :   -0.427402
  14 H :    0.322944
  15 H :    0.161184
  16 C :   -0.499315
  17 N :    0.211355
  18 C :   -0.620027
  19 C :   -0.352335
  20 O :   -0.735538
  21 C :   -0.354251
  22 C :   -0.655655
  23 H :    0.273463
  24 H :    0.406609
  25 H :    0.427069
  26 H :    0.216887
  27 H :    0.242306
  28 H :    0.369194
  29 H :    0.253059
  30 H :    0.352351
  31 H :    0.381575
  32 H :    0.230701
Sum of atomic charges:    0.0000000

LOEWDIN ATOMIC CHARGES
----------------------
   0 C :   -0.508767
   1 S :    0.085556
   2 O :    0.064936
   3 O :    0.069765
   4 N :    0.683327
   5 H :   -0.353389
   6 H :   -0.350985
   7 C :    0.204481
   8 C :   -0.228599
   9 C :   -0.790843
  10 O :    0.536427
  11 C :    0.164925
  12 C :   -0.459383
  13 S :    1.362154
  14 H :   -0.175361
  15 H :   -0.171268
  16 C :    0.066253
  17 N :    0.248891
  18 C :    0.143867
  19 C :    0.039902
  20 O :    0.586038
  21 C :    0.036787
  22 C :    0.153729
  23 H :   -0.130830
  24 H :   -0.149606
  25 H :   -0.154179
  26 H :   -0.122315
  27 H :   -0.143973
  28 H :   -0.149798
  29 H :   -0.144891
  30 H :   -0.151100
  31 H :   -0.138921
  32 H :   -0.122829

  Mayer bond orders larger than 0.100000
B(  0-C ,  1-S ) :   0.8962 B(  0-C ,  7-C ) :   1.1990 B(  0-C , 10-O ) :   0.7649
B(  1-S ,  2-O ) :   1.2831 B(  1-S ,  3-O ) :   1.2790 B(  1-S ,  4-N ) :   0.8824
B(  2-O ,  4-N ) :   0.1048 B(  4-N ,  5-H ) :   0.9556 B(  4-N ,  6-H ) :   0.9744
B(  7-C ,  8-C ) :   0.2891 B(  7-C ,  9-C ) :   0.4700 B(  7-C , 14-H ) :   1.1741
B(  8-C ,  9-C ) :   1.1972 B(  8-C , 11-C ) :   0.9215 B(  8-C , 13-S ) :   0.1710
B(  8-C , 15-H ) :  -0.1683 B(  8-C , 16-C ) :   0.1039 B(  9-C , 10-O ) :   0.8829
B(  9-C , 11-C ) :  -0.2424 B(  9-C , 12-C ) :  -0.2942 B(  9-C , 13-S ) :   0.8442
B(  9-C , 15-H ) :   0.1672 B( 11-C , 12-C ) :  -0.1247 B( 11-C , 13-S ) :   0.1888
B( 11-C , 15-H ) :   1.3299 B( 12-C , 13-S ) :   0.7858 B( 12-C , 15-H ) :  -0.1780
B( 12-C , 16-C ) :   0.4995 B( 12-C , 17-N ) :  -0.1172 B( 12-C , 24-H ) :  -0.1080
B( 13-S , 16-C ) :   0.1164 B( 13-S , 17-N ) :  -0.1704 B( 16-C , 17-N ) :   1.1243
B( 16-C , 23-H ) :   1.1068 B( 16-C , 24-H ) :   0.8527 B( 17-N , 18-C ) :   0.9524
B( 17-N , 21-C ) :  -0.1035 B( 17-N , 22-C ) :   0.7244 B( 18-C , 19-C ) :   0.9924
B( 18-C , 25-H ) :   0.7552 B( 18-C , 26-H ) :   1.0055 B( 19-C , 20-O ) :   0.8281
B( 19-C , 27-H ) :   1.0351 B( 19-C , 28-H ) :   0.9062 B( 20-O , 21-C ) :   0.8734
B( 21-C , 22-C ) :   1.0226 B( 21-C , 29-H ) :   1.0029 B( 21-C , 30-H ) :   0.9470
B( 22-C , 31-H ) :   0.8390 B( 22-C , 32-H ) :   0.9895

MP2 TOTAL ENERGY:    -1632.607423177 Eh
Dispersion correction           -0.024668287
FINAL SINGLE POINT ENERGY     -1632.632091464159

DIPOLE MOMENT
-------------
                                X             Y             Z
Electronic contribution:     -7.39306      -1.54100      27.88740
Nuclear contribution   :      7.67156      -0.32006     -29.72274
                        -----------------------------------------
Total Dipole Moment    :      0.27850      -1.86106      -1.83534
                        -----------------------------------------
Magnitude (a.u.)       :      2.62861
Magnitude (Debye)      :      6.68139

Rotational constants in cm-1:     0.036257     0.003764     0.003677
Rotational constants in MHz :  1086.961166   112.856812   110.223368

                             ****ORCA TERMINATED NORMALLY****
TOTAL RUN TIME: 0 days 0 hours 9 minutes 17 seconds 494 msec
