                         Program Version 5.0.3 -  RELEASE  -
|  1> !PAL8
|  2> !RI-DSD-PBEP86 D3BJ aug-cc-pVTZ aug-cc-pVTZ/C TightSCF
|  3> %maxcore 5000
|  4>
|  5> * xyz 0 1
|  6> C -1.2032885728  0.5725956939 -0.9414046639
|  7> C -2.3249631584  1.1657320144 -1.5156062747
|  8> H -3.1719241737  1.4356451073 -0.8915325697
|  9> C -2.3432068636  1.371252584 -2.8934359799
| 10> H -3.2124962448  1.8250252441 -3.3592188171
| 11> C -1.2530792449  0.9837172995 -3.6728512234
| 12> H -1.2739259741  1.1425470816 -4.7468447263
| 13> C -0.1420926486  0.3809000355 -3.0826213537
| 14> H  0.6969988402  0.06601681 -3.6952397844
| 15> C -0.1111029495  0.1696446537 -1.7058876362
| 16> H  0.7315050698 -0.3206343666 -1.2270323583
| 17> S -1.1502167266  0.3519633806  0.8310323231
| 18> O -2.5211931975  0.3352408557  1.3081464695
| 19> O -0.1994571914 -0.7094090916  1.1085931721
| 20> N -0.4734221303  1.7339357435  1.470713965
| 21> H -1.0459347466  2.5598530774  1.3161255743
| 22> H  0.492872913  1.8674438769  1.1839088837
| 23> *
| 24>
| 25>
| 26>
| 27>                          ****END OF INPUT****

CARTESIAN COORDINATES (ANGSTROEM)
---------------------------------
  C     -1.203289    0.572596   -0.941405
  C     -2.324963    1.165732   -1.515606
  H     -3.171924    1.435645   -0.891533
  C     -2.343207    1.371253   -2.893436
  H     -3.212496    1.825025   -3.359219
  C     -1.253079    0.983717   -3.672851
  H     -1.273926    1.142547   -4.746845
  C     -0.142093    0.380900   -3.082621
  H      0.696999    0.066017   -3.695240
  C     -0.111103    0.169645   -1.705888
  H      0.731505   -0.320634   -1.227032
  S     -1.150217    0.351963    0.831032
  O     -2.521193    0.335241    1.308146
  O     -0.199457   -0.709409    1.108593
  N     -0.473422    1.733936    1.470714
  H     -1.045935    2.559853    1.316126
  H      0.492873    1.867444    1.183909

 Total Charge           Charge          ....    0
 Multiplicity           Mult            ....    1
 Number of Electrons    NEL             ....   82
 Basis Dimension        Dim             ....  625

ORBITAL ENERGIES
----------------

  NO   OCC          E(Eh)            E(eV)
   0   2.0000     -91.041893     -2477.3759
   1   2.0000     -20.017270      -544.6976
   2   2.0000     -20.017168      -544.6948
   3   2.0000     -15.139144      -411.9571
   4   2.0000     -10.885844      -296.2189
   5   2.0000     -10.870877      -295.8116
   6   2.0000     -10.870834      -295.8104
   7   2.0000     -10.867888      -295.7303
   8   2.0000     -10.864593      -295.6406
   9   2.0000     -10.864442      -295.6365
  10   2.0000      -8.784909      -239.0495
  11   2.0000      -6.571062      -178.8077
  12   2.0000      -6.569702      -178.7707
  13   2.0000      -6.568175      -178.7291
  14   2.0000      -1.339543       -36.4508
  15   2.0000      -1.225197       -33.3393
  16   2.0000      -1.111988       -30.2587
  17   2.0000      -1.079789       -29.3825
  18   2.0000      -0.963034       -26.2055
  19   2.0000      -0.950734       -25.8708
  20   2.0000      -0.826636       -22.4939
  21   2.0000      -0.779944       -21.2233
  22   2.0000      -0.748256       -20.3611
  23   2.0000      -0.687919       -18.7192
  24   2.0000      -0.660437       -17.9714
  25   2.0000      -0.641434       -17.4543
  26   2.0000      -0.607950       -16.5432
  27   2.0000      -0.599399       -16.3105
  28   2.0000      -0.581412       -15.8210
  29   2.0000      -0.561325       -15.2744
  30   2.0000      -0.558870       -15.2076
  31   2.0000      -0.498084       -13.5535
  32   2.0000      -0.493361       -13.4250
  33   2.0000      -0.471394       -12.8273
  34   2.0000      -0.454575       -12.3696
  35   2.0000      -0.441498       -12.0138
  36   2.0000      -0.432593       -11.7714
  37   2.0000      -0.420547       -11.4437
  38   2.0000      -0.406412       -11.0590
  39   2.0000      -0.342396        -9.3171
  40   2.0000      -0.340713        -9.2713
  41   0.0000       0.008433         0.2295
  42   0.0000       0.017991         0.4896
  43   0.0000       0.020771         0.5652
  44   0.0000       0.022092         0.6011
  45   0.0000       0.034661         0.9432

MULLIKEN ATOMIC CHARGES
-----------------------
   0 C :    0.926593
   1 C :   -0.942746
   2 H :    0.464103
   3 C :   -0.447540
   4 H :    0.444668
   5 C :   -0.452372
   6 H :    0.532746
   7 C :   -0.423839
   8 H :    0.421194
   9 C :   -0.869170
  10 H :    0.511683
  11 S :    1.990961
  12 O :   -0.941179
  13 O :   -0.935327
  14 N :   -0.570667
  15 H :    0.143945
  16 H :    0.146950
Sum of atomic charges:    0.0000000

LOEWDIN ATOMIC CHARGES
----------------------
   0 C :   -0.255984
   1 C :    0.158993
   2 H :   -0.194379
   3 C :    0.204202
   4 H :   -0.176917
   5 C :    0.203894
   6 H :   -0.174898
   7 C :    0.204271
   8 H :   -0.176934
   9 C :    0.159151
  10 H :   -0.194336
  11 S :    0.121638
  12 O :    0.071487
  13 O :    0.071533
  14 N :    0.686479
  15 H :   -0.354051
  16 H :   -0.354150

  Mayer bond orders larger than 0.100000
B(  0-C ,  1-C ) :   0.6355 B(  0-C ,  3-C ) :  -0.1026 B(  0-C ,  5-C ) :  -0.1240
B(  0-C ,  7-C ) :  -0.1196 B(  0-C ,  9-C ) :   0.6425 B(  0-C , 11-S ) :   0.9663
B(  0-C , 12-O ) :   0.1702 B(  0-C , 13-O ) :   0.1684 B(  1-C ,  2-H ) :   0.6928
B(  1-C ,  3-C ) :   1.1743 B(  1-C ,  5-C ) :   0.2216 B(  1-C ,  9-C ) :   0.3700
B(  3-C ,  4-H ) :   0.8706 B(  3-C ,  5-C ) :   1.1643 B(  5-C ,  6-H ) :   0.6544
B(  5-C ,  7-C ) :   1.1591 B(  5-C ,  9-C ) :   0.2145 B(  7-C ,  8-H ) :   0.9066
B(  7-C ,  9-C ) :   1.1258 B(  9-C , 10-H ) :   0.6021 B( 11-S , 12-O ) :   1.2488
B( 11-S , 13-O ) :   1.2623 B( 11-S , 14-N ) :   0.9787 B( 14-N , 15-H ) :   0.9600
B( 14-N , 16-H ) :   0.9551

MP2 TOTAL ENERGY:     -835.339229666 Eh
Dispersion correction           -0.012548063
FINAL SINGLE POINT ENERGY      -835.351777729593

DIPOLE MOMENT
-------------
                                X             Y             Z
Electronic contribution:     -0.71291      -2.55105       5.05884
Nuclear contribution   :      1.25824       4.10829      -6.86777
                        -----------------------------------------
Total Dipole Moment    :      0.54532       1.55724      -1.80893
                        -----------------------------------------
Magnitude (a.u.)       :      2.44839
Magnitude (Debye)      :      6.22331

Rotational constants in cm-1:     0.086148     0.027737     0.024146
Rotational constants in MHz :  2582.637814   831.531917   723.878556

                             ****ORCA TERMINATED NORMALLY****
TOTAL RUN TIME: 0 days 0 hours 1 minutes 55 seconds 658 msec
