                         Program Version 5.0.3 -  RELEASE  -
|  1> !PAL8
|  2> !RI-DSD-PBEP86 D3BJ aug-cc-pVTZ aug-cc-pVTZ/C TightSCF
|  3> %maxcore 3000
|  4>
|  5>
|  6> * xyz 0 1
|  7> C -1.4169494128  0.7225098715 -0.9791406329
|  8> C -2.5782668981  0.5331834172 -1.7182954577
|  9> H -3.5361972346  0.4644382225 -1.2107996002
| 10> C -2.4922913235  0.4656857322 -3.1091466205
| 11> H -3.4004579732  0.3264917951 -3.6885727975
| 12> C -1.2633896126  0.5880930626 -3.7576390934
| 13> C -1.126890191  0.5262875464 -5.2738585662
| 14> C -0.1099075664  0.7872055009 -2.9864357164
| 15> H  0.8513749303  0.9000601155 -3.4838743394
| 16> C -0.1755897034  0.8580270736 -1.6011120186
| 17> H  0.7122597122  1.0401825517 -1.0023638523
| 18> S -1.5114245295  0.7730572077  0.8015018073
| 19> O -0.3551797682  1.511070717  1.2776806467
| 20> O -2.876210368  1.1214752472  1.1542038446
| 21> N -1.2957832966 -0.7873870972  1.347888246
| 22> H -0.3695104479 -1.1505899628  1.1382039416
| 23> H -2.0380332142 -1.4139137211  1.0472621505
| 24> N -2.323833316  0.3274579397 -6.0683057341
| 25> H -0.6513773203  1.4542442474 -5.6132305291
| 26> H -0.4232144078 -0.2771889655 -5.5227166726
| 27> H -2.9943667355  1.0799635644 -5.938310805
| 28> H -2.784848323 -0.5507800659 -5.8472072009
| 29> *
| 30>
| 31>                          ****END OF INPUT****

CARTESIAN COORDINATES (ANGSTROEM)
---------------------------------
  C     -1.416949    0.722510   -0.979141
  C     -2.578267    0.533183   -1.718295
  H     -3.536197    0.464438   -1.210800
  C     -2.492291    0.465686   -3.109147
  H     -3.400458    0.326492   -3.688573
  C     -1.263390    0.588093   -3.757639
  C     -1.126890    0.526288   -5.273859
  C     -0.109908    0.787206   -2.986436
  H      0.851375    0.900060   -3.483874
  C     -0.175590    0.858027   -1.601112
  H      0.712260    1.040183   -1.002364
  S     -1.511425    0.773057    0.801502
  O     -0.355180    1.511071    1.277681
  O     -2.876210    1.121475    1.154204
  N     -1.295783   -0.787387    1.347888
  H     -0.369510   -1.150590    1.138204
  H     -2.038033   -1.413914    1.047262
  N     -2.323833    0.327458   -6.068306
  H     -0.651377    1.454244   -5.613231
  H     -0.423214   -0.277189   -5.522717
  H     -2.994367    1.079964   -5.938311
  H     -2.784848   -0.550780   -5.847207

 Total Charge           Charge          ....    0
 Multiplicity           Mult            ....    1
 Number of Electrons    NEL             ....   98
 Basis Dimension        Dim             ....  786

ORBITAL ENERGIES
----------------

  NO   OCC          E(Eh)            E(eV)
   0   2.0000     -91.040446     -2477.3365
   1   2.0000     -20.015792      -544.6574
   2   2.0000     -20.015773      -544.6569
   3   2.0000     -15.137930      -411.9240
   4   2.0000     -15.094536      -410.7432
   5   2.0000     -10.881595      -296.1033
   6   2.0000     -10.879247      -296.0394
   7   2.0000     -10.872553      -295.8572
   8   2.0000     -10.870673      -295.8061
   9   2.0000     -10.870300      -295.7959
  10   2.0000     -10.860476      -295.5286
  11   2.0000     -10.860195      -295.5209
  12   2.0000      -8.783459      -239.0101
  13   2.0000      -6.569618      -178.7684
  14   2.0000      -6.568218      -178.7303
  15   2.0000      -6.566731      -178.6898
  16   2.0000      -1.337998       -36.4088
  17   2.0000      -1.223697       -33.2985
  18   2.0000      -1.110734       -30.2246
  19   2.0000      -1.103617       -30.0309
  20   2.0000      -1.072570       -29.1861
  21   2.0000      -0.969556       -26.3830
  22   2.0000      -0.949062       -25.8253
  23   2.0000      -0.861026       -23.4297
  24   2.0000      -0.799145       -21.7458
  25   2.0000      -0.778019       -21.1710
  26   2.0000      -0.736193       -20.0328
  27   2.0000      -0.685111       -18.6428
  28   2.0000      -0.659136       -17.9360
  29   2.0000      -0.632747       -17.2179
  30   2.0000      -0.631328       -17.1793
  31   2.0000      -0.607608       -16.5339
  32   2.0000      -0.601403       -16.3650
  33   2.0000      -0.581703       -15.8289
  34   2.0000      -0.562350       -15.3023
  35   2.0000      -0.556124       -15.1329
  36   2.0000      -0.530360       -14.4318
  37   2.0000      -0.515120       -14.0171
  38   2.0000      -0.498928       -13.5765
  39   2.0000      -0.479548       -13.0492
  40   2.0000      -0.465641       -12.6707
  41   2.0000      -0.453164       -12.3312
  42   2.0000      -0.440142       -11.9769
  43   2.0000      -0.428292       -11.6544
  44   2.0000      -0.419203       -11.4071
  45   2.0000      -0.405806       -11.0425
  46   2.0000      -0.360979        -9.8227
  47   2.0000      -0.340572        -9.2674
  48   2.0000      -0.331361        -9.0168
  49   0.0000       0.007047         0.1918
  50   0.0000       0.016486         0.4486
  51   0.0000       0.019228         0.5232
  52   0.0000       0.021722         0.5911
  53   0.0000       0.030777         0.8375

MULLIKEN ATOMIC CHARGES
-----------------------
   0 C :    0.937479
   1 C :   -0.746053
   2 H :    0.482297
   3 C :   -0.578387
   4 H :    0.116292
   5 C :    1.424769
   6 C :   -0.187946
   7 C :   -1.150125
   8 H :    0.339887
   9 C :   -1.061206
  10 H :    0.462863
  11 S :    1.943149
  12 O :   -0.952195
  13 O :   -0.950272
  14 N :   -0.573301
  15 H :    0.137005
  16 H :    0.141789
  17 N :   -0.657425
  18 H :    0.319678
  19 H :    0.308850
  20 H :    0.124847
  21 H :    0.118008
Sum of atomic charges:    0.0000000

LOEWDIN ATOMIC CHARGES
----------------------
   0 C :   -0.255326
   1 C :    0.168197
   2 H :   -0.192412
   3 C :    0.221183
   4 H :   -0.188429
   5 C :   -0.084352
   6 C :    0.152950
   7 C :    0.220966
   8 H :   -0.164855
   9 C :    0.167046
  10 H :   -0.190922
  11 S :    0.120123
  12 O :    0.070575
  13 O :    0.070868
  14 N :    0.686008
  15 H :   -0.355232
  16 H :   -0.354758
  17 N :    0.833359
  18 H :   -0.146149
  19 H :   -0.146719
  20 H :   -0.315688
  21 H :   -0.316431

  Mayer bond orders larger than 0.100000
B(  0-C ,  1-C ) :   0.6818 B(  0-C ,  3-C ) :  -0.1362 B(  0-C ,  7-C ) :  -0.1384
B(  0-C ,  9-C ) :   0.7902 B(  0-C , 11-S ) :   0.9893 B(  0-C , 12-O ) :   0.2275
B(  0-C , 13-O ) :   0.2077 B(  1-C ,  2-H ) :   0.6715 B(  1-C ,  3-C ) :   1.1520
B(  1-C ,  5-C ) :   0.1903 B(  3-C ,  4-H ) :   1.4070 B(  3-C ,  5-C ) :   0.7046
B(  3-C ,  7-C ) :  -0.2192 B(  4-H ,  5-C ) :  -0.1344 B(  5-C ,  6-C ) :   0.1976
B(  5-C ,  7-C ) :   0.6099 B(  5-C , 18-H ) :  -0.1014 B(  6-C ,  7-C ) :   0.1615
B(  6-C , 17-N ) :   0.6666 B(  6-C , 18-H ) :   0.9965 B(  6-C , 19-H ) :   0.9920
B(  7-C ,  8-H ) :   0.9821 B(  7-C ,  9-C ) :   1.5524 B(  9-C , 10-H ) :   0.6903
B( 11-S , 12-O ) :   1.2375 B( 11-S , 13-O ) :   1.2203 B( 11-S , 14-N ) :   0.9749
B( 14-N , 15-H ) :   0.9660 B( 14-N , 16-H ) :   0.9575 B( 17-N , 20-H ) :   0.9919
B( 17-N , 21-H ) :   0.9926

MP2 TOTAL ENERGY:     -929.871625426 Eh
Dispersion correction           -0.015545482
FINAL SINGLE POINT ENERGY      -929.887170907769

DIPOLE MOMENT
-------------
                                X             Y             Z
Electronic contribution:      0.03942       2.60793      13.19820
Nuclear contribution   :      0.15107      -4.08844     -14.89596
                        -----------------------------------------
Total Dipole Moment    :      0.19049      -1.48051      -1.69776
                        -----------------------------------------
Magnitude (a.u.)       :      2.26066
Magnitude (Debye)      :      5.74615

Rotational constants in cm-1:     0.077899     0.013408     0.012374
Rotational constants in MHz :  2335.350796   401.955614   370.970823

                             ****ORCA TERMINATED NORMALLY****
TOTAL RUN TIME: 0 days 0 hours 4 minutes 9 seconds 52 msec
