                         Program Version 5.0.3 -  RELEASE  -
|  1> !PAL8
|  2> !RI-DSD-PBEP86 D3BJ aug-cc-pVTZ aug-cc-pVTZ/C TightSCF
|  3> %maxcore 3000
|  4>
|  5>
|  6> * xyz 0 1
|  7> C -1.0887349491  0.6274331489 -0.9984709127
|  8> C -2.2095117404  1.099841574 -1.6868435251
|  9> H -3.1542254276  1.21451878 -1.1629391033
| 10> C -2.1119809442  1.3884116111 -3.035502023
| 11> H -2.9822377272  1.7521731393 -3.5762278374
| 12> C -0.895097496  1.2070325477 -3.7275234802
| 13> N -0.8162915541  1.5243112357 -5.0619454434
| 14> C  0.2182473593  0.7154337085 -3.0200519278
| 15> H  1.1593129134  0.5435089099 -3.5303944167
| 16> C  0.1176879923  0.4309638816 -1.6633364456
| 17> H  0.9694691517  0.0288963859 -1.121951649
| 18> S -1.2002250286  0.2980981261  0.7397904905
| 19> O -2.5979716089  0.0491704965  1.0509102332
| 20> O -0.1355457944 -0.6305734878  1.0808560998
| 21> N -0.8205968526  1.7118780491  1.5480632525
| 22> H -1.4899082957  2.453356684  1.3566210987
| 23> H  0.1366624585  2.0074364273  1.3727946895
| 24> C  0.3242976224  1.1643221034 -5.8757186461
| 25> H -1.6965666504  1.6446323301 -5.5414163941
| 26> H  0.5329367399  0.0855094767 -5.8507804421
| 27> H  1.2187547304  1.7007656418 -5.5416590671
| 28> H  0.1233991012  1.45872023 -6.9065985506
| 29> *
| 30>
| 31>                          ****END OF INPUT****

CARTESIAN COORDINATES (ANGSTROEM)
---------------------------------
  C     -1.088735    0.627433   -0.998471
  C     -2.209512    1.099842   -1.686844
  H     -3.154225    1.214519   -1.162939
  C     -2.111981    1.388412   -3.035502
  H     -2.982238    1.752173   -3.576228
  C     -0.895097    1.207033   -3.727523
  N     -0.816292    1.524311   -5.061945
  C      0.218247    0.715434   -3.020052
  H      1.159313    0.543509   -3.530394
  C      0.117688    0.430964   -1.663336
  H      0.969469    0.028896   -1.121952
  S     -1.200225    0.298098    0.739790
  O     -2.597972    0.049170    1.050910
  O     -0.135546   -0.630573    1.080856
  N     -0.820597    1.711878    1.548063
  H     -1.489908    2.453357    1.356621
  H      0.136662    2.007436    1.372795
  C      0.324298    1.164322   -5.875719
  H     -1.696567    1.644632   -5.541416
  H      0.532937    0.085509   -5.850780
  H      1.218755    1.700766   -5.541659
  H      0.123399    1.458720   -6.906599

 Total Charge           Charge          ....    0
 Multiplicity           Mult            ....    1
 Number of Electrons    NEL             ....   98
 Basis Dimension        Dim             ....  786

ORBITAL ENERGIES
----------------

  NO   OCC          E(Eh)            E(eV)
   0   2.0000     -91.030478     -2477.0652
   1   2.0000     -20.005951      -544.3896
   2   2.0000     -20.005871      -544.3874
   3   2.0000     -15.128327      -411.6627
   4   2.0000     -15.128176      -411.6586
   5   2.0000     -10.907631      -296.8117
   6   2.0000     -10.879175      -296.0374
   7   2.0000     -10.865720      -295.6713
   8   2.0000     -10.865296      -295.6597
   9   2.0000     -10.863869      -295.6209
  10   2.0000     -10.850628      -295.2606
  11   2.0000     -10.848566      -295.2045
  12   2.0000      -8.773482      -238.7386
  13   2.0000      -6.559662      -178.4975
  14   2.0000      -6.558184      -178.4573
  15   2.0000      -6.556805      -178.4197
  16   2.0000      -1.327583       -36.1254
  17   2.0000      -1.213443       -33.0195
  18   2.0000      -1.160476       -31.5782
  19   2.0000      -1.100113       -29.9356
  20   2.0000      -1.059354       -28.8265
  21   2.0000      -0.949068       -25.8255
  22   2.0000      -0.943151       -25.6645
  23   2.0000      -0.868367       -23.6295
  24   2.0000      -0.804671       -21.8962
  25   2.0000      -0.774531       -21.0761
  26   2.0000      -0.735766       -20.0212
  27   2.0000      -0.681692       -18.5498
  28   2.0000      -0.663031       -18.0420
  29   2.0000      -0.648363       -17.6428
  30   2.0000      -0.622244       -16.9321
  31   2.0000      -0.604506       -16.4495
  32   2.0000      -0.578912       -15.7530
  33   2.0000      -0.576373       -15.6839
  34   2.0000      -0.562813       -15.3149
  35   2.0000      -0.551049       -14.9948
  36   2.0000      -0.544966       -14.8293
  37   2.0000      -0.523937       -14.2571
  38   2.0000      -0.505278       -13.7493
  39   2.0000      -0.491600       -13.3771
  40   2.0000      -0.458882       -12.4868
  41   2.0000      -0.443291       -12.0626
  42   2.0000      -0.435363       -11.8468
  43   2.0000      -0.430616       -11.7177
  44   2.0000      -0.409623       -11.1464
  45   2.0000      -0.398286       -10.8379
  46   2.0000      -0.397155       -10.8071
  47   2.0000      -0.336811        -9.1651
  48   2.0000      -0.284623        -7.7450
  49   0.0000       0.006819         0.1856
  50   0.0000       0.017086         0.4649
  51   0.0000       0.018687         0.5085
  52   0.0000       0.030754         0.8369
  53   0.0000       0.034808         0.9472

MULLIKEN ATOMIC CHARGES
-----------------------
   0 C :    0.852053
   1 C :   -0.650457
   2 H :    0.397038
   3 C :   -0.691063
   4 H :    0.519301
   5 C :    1.084319
   6 N :   -0.570681
   7 C :   -0.471413
   8 H :    0.415117
   9 C :   -1.045507
  10 H :    0.385315
  11 S :    1.953352
  12 O :   -0.963976
  13 O :   -0.953952
  14 N :   -0.597277
  15 H :    0.147842
  16 H :    0.147977
  17 C :   -1.066138
  18 H :    0.040358
  19 H :    0.323189
  20 H :    0.336207
  21 H :    0.408397
Sum of atomic charges:   -0.0000000

LOEWDIN ATOMIC CHARGES
----------------------
   0 C :   -0.267612
   1 C :    0.152467
   2 H :   -0.190063
   3 C :    0.231266
   4 H :   -0.174746
   5 C :   -0.224490
   6 N :    0.545819
   7 C :    0.229657
   8 H :   -0.195355
   9 C :    0.156416
  10 H :   -0.189941
  11 S :    0.112862
  12 O :    0.066697
  13 O :    0.067156
  14 N :    0.684370
  15 H :   -0.358907
  16 H :   -0.358612
  17 C :    0.476555
  18 H :   -0.282637
  19 H :   -0.154513
  20 H :   -0.164775
  21 H :   -0.161615

  Mayer bond orders larger than 0.100000
B(  0-C ,  1-C ) :   0.8228 B(  0-C ,  9-C ) :   0.6899 B(  0-C , 11-S ) :   0.9418
B(  0-C , 12-O ) :   0.2060 B(  0-C , 13-O ) :   0.1674 B(  1-C ,  2-H ) :   0.8129
B(  1-C ,  3-C ) :   1.3546 B(  3-C ,  4-H ) :   0.6521 B(  3-C ,  5-C ) :   0.7136
B(  5-C ,  6-N ) :   0.7086 B(  5-C ,  7-C ) :   0.9502 B(  5-C ,  9-C ) :  -0.1314
B(  6-N ,  7-C ) :  -0.3745 B(  6-N , 17-C ) :   1.0937 B(  6-N , 18-H ) :   1.1576
B(  7-C ,  8-H ) :   0.8178 B(  7-C ,  9-C ) :   1.3041 B(  7-C , 17-C ) :  -0.1475
B(  9-C , 10-H ) :   0.8386 B( 11-S , 12-O ) :   1.2384 B( 11-S , 13-O ) :   1.2561
B( 11-S , 14-N ) :   0.9551 B( 14-N , 15-H ) :   0.9482 B( 14-N , 16-H ) :   0.9494
B( 17-C , 19-H ) :   0.9190 B( 17-C , 20-H ) :   0.9227 B( 17-C , 21-H ) :   0.8400

MP2 TOTAL ENERGY:     -929.873441151 Eh
Dispersion correction           -0.015438451
FINAL SINGLE POINT ENERGY      -929.888879601901

DIPOLE MOMENT
-------------
                                X             Y             Z
Electronic contribution:     -3.59806      -3.38927      12.70904
Nuclear contribution   :      4.11009       5.11983     -15.38795
                        -----------------------------------------
Total Dipole Moment    :      0.51204       1.73056      -2.67891
                        -----------------------------------------
Magnitude (a.u.)       :      3.23011
Magnitude (Debye)      :      8.21028

Rotational constants in cm-1:     0.078876     0.013690     0.012615
Rotational constants in MHz :  2364.634051   410.425552   378.194127

                             ****ORCA TERMINATED NORMALLY****
TOTAL RUN TIME: 0 days 0 hours 4 minutes 5 seconds 115 msec
