                         Program Version 5.0.3 -  RELEASE  -
|  1> !PAL8
|  2> !RI-DSD-PBEP86 D3BJ aug-cc-pVTZ aug-cc-pVTZ/C TightSCF
|  3> %maxcore 5000
|  4>
|  5> * xyz 0 1
|  6> C -1.2151842103  0.6017361811 -0.6407334626
|  7> S -1.730462931  0.4513474001  1.1344336764
|  8> O -2.8751518794  1.3180004467  1.276171715
|  9> O -1.734911789 -0.9640737167  1.4138156788
| 10> N -0.4852479744  1.1233060666  1.9598557752
| 11> H -0.3877794444  2.1293722192  1.8609488626
| 12> H  0.3803280843  0.5920890455  1.9536684887
| 13> F -2.1439335803  0.0900463333 -1.4307611014
| 14> F -0.0660282624 -0.0466063637 -0.8264392477
| 15> F -1.0318440129  1.8864163879 -0.9430263851
| 16> *
| 17>
| 18>
| 19>
| 20>                          ****END OF INPUT****

CARTESIAN COORDINATES (ANGSTROEM)
---------------------------------
  C     -1.215184    0.601736   -0.640733
  S     -1.730463    0.451347    1.134434
  O     -2.875152    1.318000    1.276172
  O     -1.734912   -0.964074    1.413816
  N     -0.485248    1.123306    1.959856
  H     -0.387779    2.129372    1.860949
  H      0.380328    0.592089    1.953668
  F     -2.143934    0.090046   -1.430761
  F     -0.066028   -0.046606   -0.826439
  F     -1.031844    1.886416   -0.943026

 Total Charge           Charge          ....    0
 Multiplicity           Mult            ....    1
 Number of Electrons    NEL             ....   74
 Basis Dimension        Dim             ....  418

ORBITAL ENERGIES
----------------

  NO   OCC          E(Eh)            E(eV)
   0   2.0000     -91.078864     -2478.3819
   1   2.0000     -25.775383      -701.3838
   2   2.0000     -25.775313      -701.3819
   3   2.0000     -25.773469      -701.3317
   4   2.0000     -20.054472      -545.7099
   5   2.0000     -20.054448      -545.7093
   6   2.0000     -15.173586      -412.8943
   7   2.0000     -11.147594      -303.3414
   8   2.0000      -8.821924      -240.0567
   9   2.0000      -6.608222      -179.8189
  10   2.0000      -6.606915      -179.7833
  11   2.0000      -6.604815      -179.7262
  12   2.0000      -1.626350       -44.2552
  13   2.0000      -1.533132       -41.7186
  14   2.0000      -1.532416       -41.6992
  15   2.0000      -1.378068       -37.4991
  16   2.0000      -1.263867       -34.3916
  17   2.0000      -1.150404       -31.3041
  18   2.0000      -0.947974       -25.7957
  19   2.0000      -0.845450       -23.0059
  20   2.0000      -0.786251       -21.3950
  21   2.0000      -0.785017       -21.3614
  22   2.0000      -0.767660       -20.8891
  23   2.0000      -0.701542       -19.0899
  24   2.0000      -0.673272       -18.3207
  25   2.0000      -0.661144       -17.9907
  26   2.0000      -0.656578       -17.8664
  27   2.0000      -0.624466       -16.9926
  28   2.0000      -0.624359       -16.9897
  29   2.0000      -0.618351       -16.8262
  30   2.0000      -0.603825       -16.4309
  31   2.0000      -0.597173       -16.2499
  32   2.0000      -0.491987       -13.3877
  33   2.0000      -0.477800       -13.0016
  34   2.0000      -0.459918       -12.5150
  35   2.0000      -0.456040       -12.4095
  36   2.0000      -0.439361       -11.9556
  37   0.0000       0.007014         0.1909
  38   0.0000       0.033987         0.9248
  39   0.0000       0.049275         1.3408
  40   0.0000       0.060616         1.6494
  41   0.0000       0.078218         2.1284

MULLIKEN ATOMIC CHARGES
-----------------------
   0 C :    0.960226
   1 S :    2.077507
   2 O :   -0.879965
   3 O :   -0.880338
   4 N :   -0.539368
   5 H :    0.167379
   6 H :    0.163791
   7 F :   -0.348007
   8 F :   -0.359361
   9 F :   -0.361864
Sum of atomic charges:   -0.0000000

LOEWDIN ATOMIC CHARGES
----------------------
   0 C :   -1.658778
   1 S :    0.065628
   2 O :    0.064610
   3 O :    0.064596
   4 N :    0.672654
   5 H :   -0.343092
   6 H :   -0.343090
   7 F :    0.503295
   8 F :    0.487092
   9 F :    0.487084

  Mayer bond orders larger than 0.100000
B(  0-C ,  1-S ) :   0.8443 B(  0-C ,  7-F ) :   0.8364 B(  0-C ,  8-F ) :   0.8346
B(  0-C ,  9-F ) :   0.8330 B(  1-S ,  2-O ) :   1.3943 B(  1-S ,  3-O ) :   1.3961
B(  1-S ,  4-N ) :   0.9802 B(  4-N ,  5-H ) :   0.9658 B(  4-N ,  6-H ) :   0.9705

MP2 TOTAL ENERGY:     -941.374295848 Eh
Dispersion correction           -0.005679012
FINAL SINGLE POINT ENERGY      -941.379974860129

DIPOLE MOMENT
-------------
                                X             Y             Z
Electronic contribution:     -0.20061      -0.50758      -6.75466
Nuclear contribution   :      1.69886       1.25993       6.81563
                        -----------------------------------------
Total Dipole Moment    :      1.49825       0.75235       0.06097
                        -----------------------------------------
Magnitude (a.u.)       :      1.67765
Magnitude (Debye)      :      4.26425

Rotational constants in cm-1:     0.086243     0.051781     0.051636
Rotational constants in MHz :  2585.499610  1552.350279  1548.020931

                             ****ORCA TERMINATED NORMALLY****
TOTAL RUN TIME: 0 days 0 hours 0 minutes 44 seconds 951 msec
