                         Program Version 5.0.3 -  RELEASE  -
|  1> !PAL8
|  2> !RI-DSD-PBEP86 D3BJ aug-cc-pVTZ aug-cc-pVTZ/C TightSCF
|  3> %maxcore 3000
|  4>
|  5>
|  6> * xyz 0 1
|  7> C  1.1240968321  0.4089728597  0.0984336094
|  8> C -1.1685011745  0.953695193  0.0658446542
|  9> N -2.5159625529  1.0756001594 -0.1225578593
| 10> S -0.2767103559 -0.4535703419 -0.4619156967
| 11> S  2.7726909823 -0.2930771102  0.0908557865
| 12> O  2.90041917 -1.0962678422  1.2876280292
| 13> O  2.97028049 -0.8444206032 -1.2342206199
| 14> N  3.7715198689  1.0045499906  0.255079749
| 15> H  3.6271929087  1.4946391848  1.1358828107
| 16> N  0.8879568011  1.5802111784  0.5798149285
| 17> N -0.4312966709  1.9078330802  0.5683683204
| 18> H -3.0766345256  0.2356714061 -0.0745356883
| 19> H  3.7241731788  1.6342496158 -0.5427628508
| 20> H -2.9199699519  1.8734892294  0.3551418271
| 21> *
| 22>
| 23>                          ****END OF INPUT****

CARTESIAN COORDINATES (ANGSTROEM)
---------------------------------
  C      1.124097    0.408973    0.098434
  C     -1.168501    0.953695    0.065845
  N     -2.515963    1.075600   -0.122558
  S     -0.276710   -0.453570   -0.461916
  S      2.772691   -0.293077    0.090856
  O      2.900419   -1.096268    1.287628
  O      2.970280   -0.844421   -1.234221
  N      3.771520    1.004550    0.255080
  H      3.627193    1.494639    1.135883
  N      0.887957    1.580211    0.579815
  N     -0.431297    1.907833    0.568368
  H     -3.076635    0.235671   -0.074536
  H      3.724173    1.634250   -0.542763
  H     -2.919970    1.873489    0.355142

 Total Charge           Charge          ....    0
 Multiplicity           Mult            ....    1
 Number of Electrons    NEL             ....   92
 Basis Dimension        Dim             ....  560

ORBITAL ENERGIES
----------------

  NO   OCC          E(Eh)            E(eV)
   0   2.0000     -91.060985     -2477.8954
   1   2.0000     -90.884349     -2473.0889
   2   2.0000     -20.032127      -545.1019
   3   2.0000     -20.030715      -545.0635
   4   2.0000     -15.171130      -412.8274
   5   2.0000     -15.154391      -412.3719
   6   2.0000     -15.149973      -412.2517
   7   2.0000     -15.142850      -412.0579
   8   2.0000     -10.979331      -298.7628
   9   2.0000     -10.944776      -297.8225
  10   2.0000      -8.803144      -239.5457
  11   2.0000      -8.660821      -235.6729
  12   2.0000      -6.589721      -179.3154
  13   2.0000      -6.587958      -179.2674
  14   2.0000      -6.586227      -179.2203
  15   2.0000      -6.443298      -175.3311
  16   2.0000      -6.440830      -175.2639
  17   2.0000      -6.439813      -175.2362
  18   2.0000      -1.356754       -36.9191
  19   2.0000      -1.279242       -34.8099
  20   2.0000      -1.238849       -33.7108
  21   2.0000      -1.165788       -31.7227
  22   2.0000      -1.128488       -30.7077
  23   2.0000      -1.029975       -28.0270
  24   2.0000      -0.994574       -27.0637
  25   2.0000      -0.851902       -23.1814
  26   2.0000      -0.771790       -21.0015
  27   2.0000      -0.749096       -20.3840
  28   2.0000      -0.697519       -18.9805
  29   2.0000      -0.670581       -18.2474
  30   2.0000      -0.666324       -18.1316
  31   2.0000      -0.629947       -17.1417
  32   2.0000      -0.596068       -16.2198
  33   2.0000      -0.588327       -16.0092
  34   2.0000      -0.573777       -15.6133
  35   2.0000      -0.560892       -15.2626
  36   2.0000      -0.486720       -13.2443
  37   2.0000      -0.472124       -12.8472
  38   2.0000      -0.462003       -12.5717
  39   2.0000      -0.453109       -12.3297
  40   2.0000      -0.437480       -11.9044
  41   2.0000      -0.432555       -11.7704
  42   2.0000      -0.414050       -11.2669
  43   2.0000      -0.400339       -10.8938
  44   2.0000      -0.395161       -10.7529
  45   2.0000      -0.335950        -9.1417
  46   0.0000       0.002835         0.0772
  47   0.0000       0.016441         0.4474
  48   0.0000       0.020612         0.5609
  49   0.0000       0.029246         0.7958
  50   0.0000       0.043557         1.1853

MULLIKEN ATOMIC CHARGES
-----------------------
   0 C :    0.287475
   1 C :    0.359509
   2 N :   -0.397059
   3 S :   -0.100775
   4 S :    2.205920
   5 O :   -0.910849
   6 O :   -0.910895
   7 N :   -0.562295
   8 H :    0.173246
   9 N :   -0.182017
  10 N :   -0.421101
  11 H :    0.130247
  12 H :    0.150433
  13 H :    0.178161
Sum of atomic charges:    0.0000000

LOEWDIN ATOMIC CHARGES
----------------------
   0 C :   -0.887654
   1 C :   -0.854233
   2 N :    0.781946
   3 S :    1.289513
   4 S :    0.018259
   5 O :    0.055685
   6 O :    0.049373
   7 N :    0.675747
   8 H :   -0.353976
   9 N :    0.047651
  10 N :    0.130237
  11 H :   -0.308381
  12 H :   -0.347305
  13 H :   -0.296862

  Mayer bond orders larger than 0.100000
B(  0-C ,  1-C ) :  -0.1017 B(  0-C ,  3-S ) :   0.8800 B(  0-C ,  4-S ) :   0.7537
B(  0-C ,  9-N ) :   1.5144 B(  1-C ,  2-N ) :   0.9098 B(  1-C ,  3-S ) :   1.1091
B(  1-C , 10-N ) :   1.5006 B(  2-N , 10-N ) :  -0.1388 B(  2-N , 11-H ) :   1.0451
B(  2-N , 13-H ) :   0.9643 B(  4-S ,  5-O ) :   1.3544 B(  4-S ,  6-O ) :   1.2915
B(  4-S ,  7-N ) :   0.8868 B(  5-O ,  7-N ) :   0.1045 B(  7-N ,  8-H ) :   0.9312
B(  7-N , 12-H ) :   0.9482 B(  9-N , 10-N ) :  -0.2338

MP2 TOTAL ENERGY:    -1243.278591413 Eh
Dispersion correction           -0.011562526
FINAL SINGLE POINT ENERGY     -1243.290153939717

DIPOLE MOMENT
-------------
                                X             Y             Z
Electronic contribution:      0.95126      -3.17571      -0.73045
Nuclear contribution   :     -2.83732       4.00942       0.63557
                        -----------------------------------------
Total Dipole Moment    :     -1.88605       0.83371      -0.09488
                        -----------------------------------------
Magnitude (a.u.)       :      2.06429
Magnitude (Debye)      :      5.24700

Rotational constants in cm-1:     0.084387     0.021790     0.019436
Rotational constants in MHz :  2529.854688   653.256945   582.684641

                             ****ORCA TERMINATED NORMALLY****
TOTAL RUN TIME: 0 days 0 hours 3 minutes 25 seconds 530 msec
