                         Program Version 5.0.3 -  RELEASE  -
|  1> !PAL8
|  2> !RI-DSD-PBEP86 D3BJ aug-cc-pVTZ aug-cc-pVTZ/C TightSCF
|  3> %maxcore 5000
|  4>
|  5>
|  6> * xyz 0 1
|  7> C -1.9052835689  0.3387669983 -1.5186562357
|  8> S -2.6429615291  0.204735848  0.0866139173
|  9> O -3.7962251204 -0.6608985131 -0.0619531124
| 10> O -1.5554323333 -0.0439329369  1.0101071762
| 11> N -3.2470555062  1.6963413703  0.4823164913
| 12> H -4.0275078733  1.9823255643 -0.1030076246
| 13> H -2.5293069047  2.410630779  0.5731647206
| 14> S -2.8464279972  0.1621194795 -2.9585155203
| 15> C -1.4733497695  0.4929359454 -3.9295919727
| 16> C -0.3603000254  0.7109653065 -3.1675578289
| 17> C -0.5949708128  0.6270867461 -1.766282605
| 18> S  1.2247941348  1.0627124685 -3.8867239664
| 19> C  2.10578214 -0.4785250983 -3.7599496988
| 20> O  1.8830569315  2.0274522751 -3.0105036778
| 21> O  0.9829939139  1.3356215101 -5.3011909506
| 22> C  2.9101594053 -0.7077674058 -2.6490897594
| 23> C  3.5831754815 -1.9241659949 -2.5522034004
| 24> C  3.4489888901 -2.8959195575 -3.5453556973
| 25> C  2.6416679106 -2.6341838917 -4.6592671052
| 26> C  1.9657475466 -1.4253845642 -4.7734657073
| 27> H -1.5334300333  0.5111153562 -5.0107372879
| 28> H  0.1543473309  0.7693765921 -0.9950473861
| 29> H  3.0244878461  0.0640195344 -1.8936758387
| 30> H  4.2276013934 -2.1138652993 -1.6975505084
| 31> H  1.3514221578 -1.2018723013 -5.6409326446
| 32> C  4.1483380928 -4.231686013 -3.4140829729
| 33> N  4.681380157 -4.7084836063 -4.67925667
| 34> H  2.5683969518 -3.3854064863 -5.4404851802
| 35> H  3.4217927528 -4.9739260086 -3.0580391078
| 36> H  4.9370964546 -4.1599551724 -2.6402087175
| 37> C  5.799299059 -3.8866520822 -5.1383683272
| 38> C  5.1036587136 -6.1025831368 -4.5885190909
| 39> C  5.6255564641 -6.569604903 -5.9394833257
| 40> C  6.3059969494 -4.4087867658 -6.474273041
| 41> O  6.7012796733 -5.7628884357 -6.3750212127
| 42> H  6.6258665354 -3.9045944161 -4.4014520095
| 43> H  5.4638567283 -2.8496844605 -5.2495714945
| 44> H  4.2452439072 -6.7157758168 -4.2912475939
| 45> H  5.8993123193 -6.2297841545 -3.8289313395
| 46> H  4.8103915407 -6.534456674 -6.6794209225
| 47> H  6.0061696402 -7.5916880891 -5.8755452636
| 48> H  7.1857267912 -3.8492144591 -6.8001210495
| 49> H  5.5138646611 -4.3071085302 -7.2329574579
| 50> *
| 51>
| 52>                          ****END OF INPUT****

CARTESIAN COORDINATES (ANGSTROEM)
---------------------------------
  C     -1.905284    0.338767   -1.518656
  S     -2.642962    0.204736    0.086614
  O     -3.796225   -0.660899   -0.061953
  O     -1.555432   -0.043933    1.010107
  N     -3.247056    1.696341    0.482316
  H     -4.027508    1.982326   -0.103008
  H     -2.529307    2.410631    0.573165
  S     -2.846428    0.162119   -2.958516
  C     -1.473350    0.492936   -3.929592
  C     -0.360300    0.710965   -3.167558
  C     -0.594971    0.627087   -1.766283
  S      1.224794    1.062712   -3.886724
  C      2.105782   -0.478525   -3.759950
  O      1.883057    2.027452   -3.010504
  O      0.982994    1.335622   -5.301191
  C      2.910159   -0.707767   -2.649090
  C      3.583175   -1.924166   -2.552203
  C      3.448989   -2.895920   -3.545356
  C      2.641668   -2.634184   -4.659267
  C      1.965748   -1.425385   -4.773466
  H     -1.533430    0.511115   -5.010737
  H      0.154347    0.769377   -0.995047
  H      3.024488    0.064020   -1.893676
  H      4.227601   -2.113865   -1.697551
  H      1.351422   -1.201872   -5.640933
  C      4.148338   -4.231686   -3.414083
  N      4.681380   -4.708484   -4.679257
  H      2.568397   -3.385406   -5.440485
  H      3.421793   -4.973926   -3.058039
  H      4.937096   -4.159955   -2.640209
  C      5.799299   -3.886652   -5.138368
  C      5.103659   -6.102583   -4.588519
  C      5.625556   -6.569605   -5.939483
  C      6.305997   -4.408787   -6.474273
  O      6.701280   -5.762888   -6.375021
  H      6.625867   -3.904594   -4.401452
  H      5.463857   -2.849684   -5.249571
  H      4.245244   -6.715776   -4.291248
  H      5.899312   -6.229784   -3.828931
  H      4.810392   -6.534457   -6.679421
  H      6.006170   -7.591688   -5.875545
  H      7.185727   -3.849214   -6.800121
  H      5.513865   -4.307109   -7.232957

 Total Charge           Charge          ....    0
 Multiplicity           Mult            ....    1
 Number of Electrons    NEL             ....  210
 Basis Dimension        Dim             .... 1576

ORBITAL ENERGIES
----------------

  NO   OCC          E(Eh)            E(eV)
   0   2.0000     -91.062031     -2477.9238
   1   2.0000     -91.035121     -2477.1916
   2   2.0000     -90.884369     -2473.0894
   3   2.0000     -20.032452      -545.1107
   4   2.0000     -20.032303      -545.1067
   5   2.0000     -20.030824      -545.0664
   6   2.0000     -20.023622      -544.8705
   7   2.0000     -20.023360      -544.8633
   8   2.0000     -15.151994      -412.3067
   9   2.0000     -15.105927      -411.0532
  10   2.0000     -10.919496      -297.1346
  11   2.0000     -10.918813      -297.1160
  12   2.0000     -10.899386      -296.5874
  13   2.0000     -10.895894      -296.4923
  14   2.0000     -10.885878      -296.2198
  15   2.0000     -10.883004      -296.1416
  16   2.0000     -10.882155      -296.1185
  17   2.0000     -10.879367      -296.0426
  18   2.0000     -10.874499      -295.9102
  19   2.0000     -10.873279      -295.8770
  20   2.0000     -10.872546      -295.8570
  21   2.0000     -10.865306      -295.6600
  22   2.0000     -10.862410      -295.5812
  23   2.0000     -10.862401      -295.5809
  24   2.0000     -10.858862      -295.4847
  25   2.0000      -8.803985      -239.5686
  26   2.0000      -8.781256      -238.9501
  27   2.0000      -8.659694      -235.6423
  28   2.0000      -6.590157      -179.3273
  29   2.0000      -6.589231      -179.3021
  30   2.0000      -6.587170      -179.2460
  31   2.0000      -6.566577      -178.6856
  32   2.0000      -6.565902      -178.6673
  33   2.0000      -6.564573      -178.6311
  34   2.0000      -6.442151      -175.2998
  35   2.0000      -6.439518      -175.2282
  36   2.0000      -6.439225      -175.2202
  37   2.0000      -1.356726       -36.9184
  38   2.0000      -1.333964       -36.2990
  39   2.0000      -1.268252       -34.5109
  40   2.0000      -1.241892       -33.7936
  41   2.0000      -1.226620       -33.3780
  42   2.0000      -1.145797       -31.1787
  43   2.0000      -1.128752       -30.7149
  44   2.0000      -1.121116       -30.5071
  45   2.0000      -1.082723       -29.4624
  46   2.0000      -0.990236       -26.9457
  47   2.0000      -0.965817       -26.2812
  48   2.0000      -0.953613       -25.9491
  49   2.0000      -0.953066       -25.9342
  50   2.0000      -0.950793       -25.8724
  51   2.0000      -0.903790       -24.5934
  52   2.0000      -0.852035       -23.1851
  53   2.0000      -0.828583       -22.5469
  54   2.0000      -0.811841       -22.0913
  55   2.0000      -0.799576       -21.7576
  56   2.0000      -0.783696       -21.3255
  57   2.0000      -0.748007       -20.3543
  58   2.0000      -0.735239       -20.0069
  59   2.0000      -0.713880       -19.4257
  60   2.0000      -0.711741       -19.3675
  61   2.0000      -0.692214       -18.8361
  62   2.0000      -0.674308       -18.3489
  63   2.0000      -0.660735       -17.9795
  64   2.0000      -0.642813       -17.4918
  65   2.0000      -0.636986       -17.3333
  66   2.0000      -0.619446       -16.8560
  67   2.0000      -0.611629       -16.6433
  68   2.0000      -0.605651       -16.4806
  69   2.0000      -0.593437       -16.1483
  70   2.0000      -0.592001       -16.1092
  71   2.0000      -0.585528       -15.9330
  72   2.0000      -0.584104       -15.8943
  73   2.0000      -0.582323       -15.8458
  74   2.0000      -0.574404       -15.6303
  75   2.0000      -0.558695       -15.2029
  76   2.0000      -0.552294       -15.0287
  77   2.0000      -0.550252       -14.9731
  78   2.0000      -0.550169       -14.9709
  79   2.0000      -0.531995       -14.4763
  80   2.0000      -0.529621       -14.4117
  81   2.0000      -0.517694       -14.0872
  82   2.0000      -0.497820       -13.5464
  83   2.0000      -0.491349       -13.3703
  84   2.0000      -0.481657       -13.1065
  85   2.0000      -0.480276       -13.0690
  86   2.0000      -0.470811       -12.8114
  87   2.0000      -0.467799       -12.7295
  88   2.0000      -0.460548       -12.5322
  89   2.0000      -0.457169       -12.4402
  90   2.0000      -0.451357       -12.2820
  91   2.0000      -0.448766       -12.2115
  92   2.0000      -0.446412       -12.1475
  93   2.0000      -0.444031       -12.0827
  94   2.0000      -0.435732       -11.8569
  95   2.0000      -0.430398       -11.7117
  96   2.0000      -0.424194       -11.5429
  97   2.0000      -0.415499       -11.3063
  98   2.0000      -0.400656       -10.9024
  99   2.0000      -0.371394       -10.1061
 100   2.0000      -0.369469       -10.0538
 101   2.0000      -0.352559        -9.5936
 102   2.0000      -0.341037        -9.2801
 103   2.0000      -0.335054        -9.1173
 104   2.0000      -0.328103        -8.9281
 105   0.0000      -0.006976        -0.1898
 106   0.0000       0.009463         0.2575
 107   0.0000       0.011751         0.3198
 108   0.0000       0.016438         0.4473
 109   0.0000       0.018095         0.4924

MULLIKEN ATOMIC CHARGES
-----------------------
   0 C :    0.675403
   1 S :    2.122198
   2 O :   -0.937450
   3 O :   -0.933021
   4 N :   -0.573930
   5 H :    0.145927
   6 H :    0.149867
   7 S :   -0.300958
   8 C :   -0.665995
   9 C :    0.320862
  10 C :   -1.033860
  11 S :    2.180805
  12 C :    0.791989
  13 O :   -1.121188
  14 O :   -1.091867
  15 C :   -0.701505
  16 C :   -1.178539
  17 C :    2.036422
  18 C :   -0.752603
  19 C :   -0.816519
  20 H :    0.485098
  21 H :    0.364613
  22 H :    0.432305
  23 H :    0.035843
  24 H :    0.389733
  25 C :   -0.569748
  26 N :    0.215828
  27 H :    0.029013
  28 H :    0.433950
  29 H :    0.250952
  30 C :   -0.680729
  31 C :   -0.707778
  32 C :   -0.364665
  33 C :   -0.336686
  34 O :   -0.738802
  35 H :    0.217359
  36 H :    0.422775
  37 H :    0.356713
  38 H :    0.223725
  39 H :    0.254656
  40 H :    0.351919
  41 H :    0.377745
  42 H :    0.240142
Sum of atomic charges:    0.0000000

LOEWDIN ATOMIC CHARGES
----------------------
   0 C :   -0.656562
   1 S :    0.035915
   2 O :    0.053889
   3 O :    0.072277
   4 N :    0.679239
   5 H :   -0.354023
   6 H :   -0.349006
   7 S :    1.288160
   8 C :   -0.207565
   9 C :   -0.378892
  10 C :    0.030644
  11 S :    0.247260
  12 C :   -0.252671
  13 O :    0.075003
  14 O :    0.075731
  15 C :    0.176550
  16 C :    0.240162
  17 C :   -0.095290
  18 C :    0.236127
  19 C :    0.181020
  20 H :   -0.243056
  21 H :   -0.178604
  22 H :   -0.190157
  23 H :   -0.166430
  24 H :   -0.185659
  25 C :    0.151278
  26 N :    0.274505
  27 H :   -0.166331
  28 H :   -0.132083
  29 H :   -0.131684
  30 C :    0.158626
  31 C :    0.156526
  32 C :    0.037755
  33 C :    0.041739
  34 O :    0.586423
  35 H :   -0.120855
  36 H :   -0.141543
  37 H :   -0.137203
  38 H :   -0.122521
  39 H :   -0.144718
  40 H :   -0.150870
  41 H :   -0.149592
  42 H :   -0.143515

  Mayer bond orders larger than 0.100000
B(  0-C ,  1-S ) :   0.8991 B(  0-C ,  2-O ) :   0.1507 B(  0-C ,  7-S ) :   0.6082
B(  0-C , 10-C ) :   1.2525 B(  1-S ,  2-O ) :   1.2415 B(  1-S ,  3-O ) :   1.2783
B(  1-S ,  4-N ) :   0.9514 B(  4-N ,  5-H ) :   0.9520 B(  4-N ,  6-H ) :   0.9566
B(  7-S ,  8-C ) :   1.2030 B(  7-S , 10-C ) :   0.2510 B(  8-C ,  9-C ) :   1.1367
B(  8-C , 10-C ) :   0.1403 B(  8-C , 11-S ) :  -0.1058 B(  8-C , 12-C ) :   0.1804
B(  8-C , 20-H ) :   0.6873 B(  9-C , 10-C ) :   0.7290 B(  9-C , 11-S ) :   1.1047
B(  9-C , 12-C ) :   0.2787 B(  9-C , 13-O ) :   0.1796 B(  9-C , 14-O ) :   0.1586
B( 10-C , 21-H ) :   0.9257 B( 11-S , 12-C ) :   1.0536 B( 11-S , 13-O ) :   0.6970
B( 11-S , 14-O ) :   0.7193 B( 11-S , 19-C ) :  -0.2123 B( 12-C , 13-O ) :   0.3075
B( 12-C , 14-O ) :   0.3705 B( 12-C , 15-C ) :   0.7789 B( 12-C , 16-C ) :  -0.2286
B( 12-C , 18-C ) :  -0.2116 B( 12-C , 19-C ) :   0.5542 B( 12-C , 24-H ) :   0.1065
B( 13-O , 16-C ) :  -0.1440 B( 14-O , 18-C ) :  -0.1701 B( 15-C , 16-C ) :   1.4123
B( 15-C , 17-C ) :   0.1859 B( 15-C , 22-H ) :   0.7518 B( 16-C , 18-C ) :  -0.5173
B( 16-C , 19-C ) :   0.2113 B( 16-C , 23-H ) :   1.6837 B( 16-C , 25-C ) :   0.3684
B( 16-C , 26-N ) :  -0.1117 B( 16-C , 27-H ) :   0.1728 B( 17-C , 18-C ) :   0.7264
B( 17-C , 19-C ) :   0.2811 B( 17-C , 22-H ) :   0.1160 B( 17-C , 23-H ) :  -0.4131
B( 17-C , 25-C ) :   0.1058 B( 17-C , 26-N ) :  -0.2008 B( 17-C , 27-H ) :  -0.3977
B( 17-C , 28-H ) :  -0.1382 B( 18-C , 19-C ) :   1.3093 B( 18-C , 23-H ) :   0.1173
B( 18-C , 25-C ) :   0.2035 B( 18-C , 27-H ) :   1.7390 B( 19-C , 23-H ) :  -0.1053
B( 19-C , 24-H ) :   0.7376 B( 19-C , 27-H ) :  -0.1603 B( 23-H , 27-H ) :   0.1882
B( 25-C , 26-N ) :   1.2534 B( 25-C , 28-H ) :   0.8570 B( 25-C , 29-H ) :   1.1302
B( 26-N , 30-C ) :   0.9344 B( 26-N , 31-C ) :   0.8711 B( 26-N , 32-C ) :  -0.1174
B( 30-C , 31-C ) :   0.1120 B( 30-C , 33-C ) :   1.0643 B( 30-C , 35-H ) :   0.9931
B( 30-C , 36-H ) :   0.7678 B( 31-C , 32-C ) :   1.0221 B( 31-C , 37-H ) :   0.8687
B( 31-C , 38-H ) :   0.9801 B( 32-C , 34-O ) :   0.8734 B( 32-C , 39-H ) :   0.9974
B( 32-C , 40-H ) :   0.9447 B( 33-C , 34-O ) :   0.8331 B( 33-C , 41-H ) :   0.8831
B( 33-C , 42-H ) :   1.0281

MP2 TOTAL ENERGY:    -2260.246507346 Eh
Dispersion correction           -0.036312275
FINAL SINGLE POINT ENERGY     -2260.282819621022

DIPOLE MOMENT
-------------
                                X             Y             Z
Electronic contribution:    -33.90769      27.67042      12.50637
Nuclear contribution   :     33.82760     -28.15462     -13.04135
                        -----------------------------------------
Total Dipole Moment    :     -0.08009      -0.48421      -0.53497
                        -----------------------------------------
Magnitude (a.u.)       :      0.72599
Magnitude (Debye)      :      1.84533

Rotational constants in cm-1:     0.012352     0.002186     0.002047
Rotational constants in MHz :   370.292255    65.535358    61.355848

                             ****ORCA TERMINATED NORMALLY****
TOTAL RUN TIME: 0 days 0 hours 19 minutes 22 seconds 450 msec
