                         Program Version 5.0.3 -  RELEASE  -
|  1> !PAL8
|  2> !RI-DSD-PBEP86 D3BJ aug-cc-pVTZ aug-cc-pVTZ/C TightSCF
|  3> %maxcore 5000
|  4>
|  5> * xyz 0 1
|  6> C -0.823921632  0.5877719902 -0.6119671632
|  7> N -1.3766702625  1.6099192958 -1.1604904381
|  8> N -0.8648999441  1.8022408352 -2.3947667888
|  9> C  0.0894233239  0.9284724019 -2.8213627088
| 10> N  0.6325126923  1.0415968987 -3.9917955976
| 11> S  0.3931126279 -0.2542189735 -1.5393907196
| 12> S -1.3732512433  0.0333521345  1.0041935801
| 13> O -2.554055432 -0.7758396881  0.7993842043
| 14> O -0.1833316249 -0.4644254148  1.6607737003
| 15> N -1.8532606169  1.393999038  1.7982729709
| 16> H -2.6660792667  1.8360884847  1.3757798976
| 17> C -1.328262484  2.9100308856 -3.2163011654
| 18> H -2.0959960798  3.4320269584 -2.6476710996
| 19> H -1.735959657  2.5229416507 -4.1520277139
| 20> H -0.4917697184  3.5747383445 -3.4414840522
| 21> H -1.0920276084  2.0440058073  1.9765821871
| 22> C  1.5983158715  0.0923235203 -4.3129330622
| 23> C  2.1859679365  0.2545680524 -5.6884373188
| 24> O  1.9422887292 -0.7986555947 -3.5469738458
| 25> H  2.6268546455  1.2511699205 -5.7841988096
| 26> H  1.3909654439  0.177996703 -6.436344938
| 27> H  2.9413162992 -0.5111942508 -5.8631451186
| 28> *
| 29>
| 30>                          ****END OF INPUT****

CARTESIAN COORDINATES (ANGSTROEM)
---------------------------------
  C     -0.823922    0.587772   -0.611967
  N     -1.376670    1.609919   -1.160490
  N     -0.864900    1.802241   -2.394767
  C      0.089423    0.928472   -2.821363
  N      0.632513    1.041597   -3.991796
  S      0.393113   -0.254219   -1.539391
  S     -1.373251    0.033352    1.004194
  O     -2.554055   -0.775840    0.799384
  O     -0.183332   -0.464425    1.660774
  N     -1.853261    1.393999    1.798273
  H     -2.666079    1.836088    1.375780
  C     -1.328262    2.910031   -3.216301
  H     -2.095996    3.432027   -2.647671
  H     -1.735960    2.522942   -4.152028
  H     -0.491770    3.574738   -3.441484
  H     -1.092028    2.044006    1.976582
  C      1.598316    0.092324   -4.312933
  C      2.185968    0.254568   -5.688437
  O      1.942289   -0.798656   -3.546974
  H      2.626855    1.251170   -5.784199
  H      1.390965    0.177997   -6.436345
  H      2.941316   -0.511194   -5.863145

 Total Charge           Charge          ....    0
 Multiplicity           Mult            ....    1
 Number of Electrons    NEL             ....  122
 Basis Dimension        Dim             ....  836

ORBITAL ENERGIES
----------------

  NO   OCC          E(Eh)            E(eV)
   0   2.0000     -91.067236     -2478.0655
   1   2.0000     -90.883901     -2473.0767
   2   2.0000     -20.037910      -545.2592
   3   2.0000     -20.036958      -545.2333
   4   2.0000     -20.011568      -544.5425
   5   2.0000     -15.218798      -414.1245
   6   2.0000     -15.196870      -413.5279
   7   2.0000     -15.158178      -412.4750
   8   2.0000     -15.096915      -410.8079
   9   2.0000     -10.987750      -298.9919
  10   2.0000     -10.954633      -298.0907
  11   2.0000     -10.953044      -298.0475
  12   2.0000     -10.898015      -296.5501
  13   2.0000     -10.835102      -294.8381
  14   2.0000      -8.809409      -239.7162
  15   2.0000      -8.657958      -235.5950
  16   2.0000      -6.595935      -179.4845
  17   2.0000      -6.594380      -179.4422
  18   2.0000      -6.592401      -179.3884
  19   2.0000      -6.440461      -175.2539
  20   2.0000      -6.437561      -175.1749
  21   2.0000      -6.436274      -175.1399
  22   2.0000      -1.363693       -37.1080
  23   2.0000      -1.321484       -35.9594
  24   2.0000      -1.277480       -34.7620
  25   2.0000      -1.245802       -33.9000
  26   2.0000      -1.150618       -31.3099
  27   2.0000      -1.134299       -30.8658
  28   2.0000      -1.082701       -29.4618
  29   2.0000      -1.000978       -27.2380
  30   2.0000      -0.921916       -25.0866
  31   2.0000      -0.912988       -24.8437
  32   2.0000      -0.857328       -23.3291
  33   2.0000      -0.796200       -21.6657
  34   2.0000      -0.743914       -20.2429
  35   2.0000      -0.718767       -19.5586
  36   2.0000      -0.680682       -18.5223
  37   2.0000      -0.654431       -17.8080
  38   2.0000      -0.642703       -17.4888
  39   2.0000      -0.638438       -17.3728
  40   2.0000      -0.621030       -16.8991
  41   2.0000      -0.616494       -16.7756
  42   2.0000      -0.584753       -15.9119
  43   2.0000      -0.572010       -15.5652
  44   2.0000      -0.561748       -15.2859
  45   2.0000      -0.551671       -15.0117
  46   2.0000      -0.539458       -14.6794
  47   2.0000      -0.516722       -14.0607
  48   2.0000      -0.504104       -13.7174
  49   2.0000      -0.488122       -13.2825
  50   2.0000      -0.478292       -13.0150
  51   2.0000      -0.466654       -12.6983
  52   2.0000      -0.464733       -12.6460
  53   2.0000      -0.450053       -12.2466
  54   2.0000      -0.441677       -12.0186
  55   2.0000      -0.437460       -11.9039
  56   2.0000      -0.425819       -11.5871
  57   2.0000      -0.404002       -10.9934
  58   2.0000      -0.401201       -10.9172
  59   2.0000      -0.368066       -10.0156
  60   2.0000      -0.322591        -8.7781
  61   0.0000       0.004709         0.1281
  62   0.0000       0.012758         0.3472
  63   0.0000       0.016334         0.4445
  64   0.0000       0.024232         0.6594
  65   0.0000       0.028071         0.7639

MULLIKEN ATOMIC CHARGES
-----------------------
   0 C :    0.024085
   1 N :   -1.109057
   2 N :    1.037409
   3 C :   -0.139691
   4 N :   -0.232195
   5 S :    0.334689
   6 S :    2.191045
   7 O :   -0.918379
   8 O :   -0.895077
   9 N :   -0.579756
  10 H :    0.154893
  11 C :   -0.794483
  12 H :    0.433676
  13 H :    0.337779
  14 H :    0.338310
  15 H :    0.143591
  16 C :    0.349014
  17 C :   -0.826560
  18 O :   -0.749797
  19 H :    0.261186
  20 H :    0.266910
  21 H :    0.372409
Sum of atomic charges:    0.0000000

LOEWDIN ATOMIC CHARGES
----------------------
   0 C :   -0.834143
   1 N :    0.199829
   2 N :   -0.025471
   3 C :   -0.780736
   4 N :    0.316495
   5 S :    1.318110
   6 S :    0.029890
   7 O :    0.061887
   8 O :    0.055927
   9 N :    0.677293
  10 H :   -0.352350
  11 C :    0.512825
  12 H :   -0.170036
  13 H :   -0.155757
  14 H :   -0.155193
  15 H :   -0.345901
  16 C :   -0.801963
  17 C :    0.562755
  18 O :    0.419597
  19 H :   -0.175233
  20 H :   -0.174409
  21 H :   -0.183416

  Mayer bond orders larger than 0.100000
B(  0-C ,  1-N ) :   1.7427 B(  0-C ,  5-S ) :   0.8530 B(  0-C ,  6-S ) :   0.6824
B(  1-N ,  2-N ) :  -1.0861 B(  2-N ,  3-C ) :   1.0655 B(  2-N , 11-C ) :   0.8401
B(  3-C ,  4-N ) :   1.0210 B(  3-C ,  5-S ) :   1.0782 B(  3-C , 11-C ) :  -0.1110
B(  3-C , 16-C ) :  -0.1126 B(  3-C , 18-O ) :   0.2183 B(  4-N , 11-C ) :  -0.1204
B(  4-N , 16-C ) :   0.8760 B(  4-N , 18-O ) :  -0.1414 B(  5-S , 18-O ) :  -0.1183
B(  6-S ,  7-O ) :   1.3128 B(  6-S ,  8-O ) :   1.3243 B(  6-S ,  9-N ) :   0.9133
B(  7-O ,  9-N ) :   0.1169 B(  9-N , 10-H ) :   0.9520 B(  9-N , 15-H ) :   0.9565
B( 11-C , 12-H ) :   0.7907 B( 11-C , 13-H ) :   0.9222 B( 11-C , 14-H ) :   0.9188
B( 16-C , 17-C ) :   0.6082 B( 16-C , 18-O ) :   1.4659 B( 17-C , 19-H ) :   1.0127
B( 17-C , 20-H ) :   1.0038 B( 17-C , 21-H ) :   0.8683

MP2 TOTAL ENERGY:    -1434.981508477 Eh
Dispersion correction           -0.016823659
FINAL SINGLE POINT ENERGY     -1434.998332135786

DIPOLE MOMENT
-------------
                                X             Y             Z
Electronic contribution:     -1.76393      -7.19178      11.63673
Nuclear contribution   :      1.26891       9.82549     -12.64029
                        -----------------------------------------
Total Dipole Moment    :     -0.49502       2.63371      -1.00356
                        -----------------------------------------
Magnitude (a.u.)       :      2.86158
Magnitude (Debye)      :      7.27355

Rotational constants in cm-1:     0.041160     0.010674     0.008982
Rotational constants in MHz :  1233.953084   320.003108   269.275121

                             ****ORCA TERMINATED NORMALLY****
TOTAL RUN TIME: 0 days 0 hours 3 minutes 45 seconds 303 msec
