                         Program Version 5.0.3 -  RELEASE  -
|  1> !PAL8
|  2> !RI-DSD-PBEP86 D3BJ aug-cc-pVTZ aug-cc-pVTZ/C TightSCF
|  3> %maxcore 5000
|  4>
|  5>
|  6> * xyz 0 1
|  7> C  0.9927190501 -0.1332111206 -0.2276075534
|  8> C -1.3062090124  0.2606688679 -0.2795249246
|  9> N -2.6627053438  0.444195903 -0.1215998009
| 10> S -0.2353138347 -0.2444610797  0.9914246179
| 11> S  2.7303892984 -0.4277910838  0.1035193768
| 12> O  3.2945200401  0.8222533446  0.564037871
| 13> O  2.7867319931 -1.6421467793  0.8913780487
| 14> N  3.387192031 -0.7507403613 -1.3714314082
| 15> H  3.3059251355  0.0371585162 -2.011270129
| 16> C -3.3405505512  0.272987115  1.0729998355
| 17> O -2.7531364185 -0.0878118607  2.0727806674
| 18> C -4.8125021221  0.5943958737  1.0245841721
| 19> N  0.5914427035  0.2289620002 -1.4011962013
| 20> N -0.7471087525  0.4573677702 -1.4424312847
| 21> H -3.1500047465  0.7465890228 -0.9581122083
| 22> H  3.0260829201 -1.6107998636 -1.7776410244
| 23> H -4.9475997845  1.6763354889  1.125092532
| 24> H -5.3020978717  0.1020632745  1.8644317119
| 25> H -5.2725307335  0.2732409721  0.086345701
| 26> *
| 27>
| 28>                          ****END OF INPUT****

CARTESIAN COORDINATES (ANGSTROEM)
---------------------------------
  C      0.992719   -0.133211   -0.227608
  C     -1.306209    0.260669   -0.279525
  N     -2.662705    0.444196   -0.121600
  S     -0.235314   -0.244461    0.991425
  S      2.730389   -0.427791    0.103519
  O      3.294520    0.822253    0.564038
  O      2.786732   -1.642147    0.891378
  N      3.387192   -0.750740   -1.371431
  H      3.305925    0.037159   -2.011270
  C     -3.340551    0.272987    1.073000
  O     -2.753136   -0.087812    2.072781
  C     -4.812502    0.594396    1.024584
  N      0.591443    0.228962   -1.401196
  N     -0.747109    0.457368   -1.442431
  H     -3.150005    0.746589   -0.958112
  H      3.026083   -1.610800   -1.777641
  H     -4.947600    1.676335    1.125093
  H     -5.302098    0.102063    1.864432
  H     -5.272531    0.273241    0.086346

 Total Charge           Charge          ....    0
 Multiplicity           Mult            ....    1
 Number of Electrons    NEL             ....  114
 Basis Dimension        Dim             ....  744

ORBITAL ENERGIES
----------------

  NO   OCC          E(Eh)            E(eV)
   0   2.0000     -91.058796     -2477.8358
   1   2.0000     -90.887145     -2473.1649
   2   2.0000     -20.038203      -545.2672
   3   2.0000     -20.030289      -545.0519
   4   2.0000     -20.028772      -545.0106
   5   2.0000     -15.185411      -413.2160
   6   2.0000     -15.169563      -412.7848
   7   2.0000     -15.151393      -412.2904
   8   2.0000     -15.148413      -412.2093
   9   2.0000     -10.996449      -299.2286
  10   2.0000     -10.982083      -298.8377
  11   2.0000     -10.941532      -297.7342
  12   2.0000     -10.873302      -295.8776
  13   2.0000      -8.801074      -239.4894
  14   2.0000      -8.662133      -235.7086
  15   2.0000      -6.587651      -179.2591
  16   2.0000      -6.585912      -179.2118
  17   2.0000      -6.584134      -179.1634
  18   2.0000      -6.444403      -175.3611
  19   2.0000      -6.441873      -175.2923
  20   2.0000      -6.440955      -175.2673
  21   2.0000      -1.354967       -36.8705
  22   2.0000      -1.316820       -35.8325
  23   2.0000      -1.281039       -34.8589
  24   2.0000      -1.237223       -33.6666
  25   2.0000      -1.187271       -32.3073
  26   2.0000      -1.127026       -30.6679
  27   2.0000      -1.038267       -28.2527
  28   2.0000      -1.010044       -27.4847
  29   2.0000      -0.949297       -25.8317
  30   2.0000      -0.855958       -23.2918
  31   2.0000      -0.805218       -21.9111
  32   2.0000      -0.762063       -20.7368
  33   2.0000      -0.736996       -20.0547
  34   2.0000      -0.705378       -19.1943
  35   2.0000      -0.669213       -18.2102
  36   2.0000      -0.645762       -17.5721
  37   2.0000      -0.629109       -17.1189
  38   2.0000      -0.616944       -16.7879
  39   2.0000      -0.611226       -16.6323
  40   2.0000      -0.583421       -15.8757
  41   2.0000      -0.571026       -15.5384
  42   2.0000      -0.569448       -15.4955
  43   2.0000      -0.566098       -15.4043
  44   2.0000      -0.541307       -14.7297
  45   2.0000      -0.518498       -14.1090
  46   2.0000      -0.470700       -12.8084
  47   2.0000      -0.466966       -12.7068
  48   2.0000      -0.461751       -12.5649
  49   2.0000      -0.447573       -12.1791
  50   2.0000      -0.436045       -11.8654
  51   2.0000      -0.430587       -11.7169
  52   2.0000      -0.422485       -11.4964
  53   2.0000      -0.409160       -11.1338
  54   2.0000      -0.399869       -10.8810
  55   2.0000      -0.393258       -10.7011
  56   2.0000      -0.342970        -9.3327
  57   0.0000       0.002594         0.0706
  58   0.0000       0.011754         0.3198
  59   0.0000       0.019497         0.5305
  60   0.0000       0.026008         0.7077
  61   0.0000       0.026735         0.7275

MULLIKEN ATOMIC CHARGES
-----------------------
   0 C :    0.291365
   1 C :    0.110723
   2 N :    0.071438
   3 S :    0.304786
   4 S :    2.128582
   5 O :   -0.915901
   6 O :   -0.907307
   7 N :   -0.573385
   8 H :    0.173678
   9 C :    0.303959
  10 O :   -0.701606
  11 C :   -0.794120
  12 N :   -0.210142
  13 N :   -0.529790
  14 H :    0.132330
  15 H :    0.151970
  16 H :    0.318113
  17 H :    0.338925
  18 H :    0.306381
Sum of atomic charges:   -0.0000000

LOEWDIN ATOMIC CHARGES
----------------------
   0 C :   -0.875432
   1 C :   -0.818112
   2 N :    0.476699
   3 S :    1.324126
   4 S :    0.022324
   5 O :    0.056859
   6 O :    0.050245
   7 N :    0.675346
   8 H :   -0.355362
   9 C :   -0.681599
  10 O :    0.451756
  11 C :    0.600073
  12 N :    0.057973
  13 N :    0.139639
  14 H :   -0.273322
  15 H :   -0.347787
  16 H :   -0.160228
  17 H :   -0.171898
  18 H :   -0.171300

  Mayer bond orders larger than 0.100000
B(  0-C ,  3-S ) :   0.9283 B(  0-C ,  4-S ) :   0.6975 B(  0-C , 12-N ) :   1.4507
B(  1-C ,  2-N ) :   0.8106 B(  1-C ,  3-S ) :   1.1437 B(  1-C ,  9-C ) :  -0.2225
B(  1-C , 10-O ) :   0.1227 B(  1-C , 12-N ) :  -0.1018 B(  1-C , 13-N ) :   1.5853
B(  2-N ,  9-C ) :   1.0026 B(  2-N , 13-N ) :  -0.1519 B(  2-N , 14-H ) :   1.0407
B(  3-S , 13-N ) :   0.1045 B(  4-S ,  5-O ) :   1.3352 B(  4-S ,  6-O ) :   1.3559
B(  4-S ,  7-N ) :   0.8797 B(  4-S , 12-N ) :   0.1056 B(  5-O ,  7-N ) :   0.1118
B(  7-N ,  8-H ) :   0.9243 B(  7-N , 15-H ) :   0.9445 B(  9-C , 10-O ) :   1.5233
B(  9-C , 11-C ) :   0.5904 B( 11-C , 16-H ) :   0.9151 B( 11-C , 17-H ) :   0.9391
B( 11-C , 18-H ) :   0.9578 B( 12-N , 13-N ) :  -0.3375

MP2 TOTAL ENERGY:    -1395.740916181 Eh
Dispersion correction           -0.014962440
FINAL SINGLE POINT ENERGY     -1395.755878620399

DIPOLE MOMENT
-------------
                                X             Y             Z
Electronic contribution:      9.58531      -1.40129       1.42002
Nuclear contribution   :    -12.28402       1.60275      -2.79461
                        -----------------------------------------
Total Dipole Moment    :     -2.69871       0.20146      -1.37459
                        -----------------------------------------
Magnitude (a.u.)       :      3.03531
Magnitude (Debye)      :      7.71516

Rotational constants in cm-1:     0.064053     0.010564     0.009634
Rotational constants in MHz :  1920.262493   316.704658   288.818923

                             ****ORCA TERMINATED NORMALLY****
TOTAL RUN TIME: 0 days 0 hours 2 minutes 43 seconds 323 msec
