                         Program Version 5.0.3 -  RELEASE  -
|  1> !PAL8
|  2> !RI-DSD-PBEP86 D3BJ aug-cc-pVTZ aug-cc-pVTZ/C TightSCF
|  3> %maxcore 3000
|  4>
|  5>
|  6> * xyz 0 1
|  7> C -1.4016458311  0.6391723485 -0.8708784262
|  8> C -2.5296533122  0.7629325292 -1.6962445253
|  9> Cl -4.09906632  1.1114775344 -1.0369687285
| 10> C -2.4298185086  0.6267889941 -3.0686606605
| 11> H -3.3200030565  0.7132003992 -3.6839190507
| 12> C -1.1900056956  0.3530406378 -3.6706609173
| 13> C -0.0678372947  0.2553198772 -2.8360047617
| 14> S  1.54261063  0.024048961 -3.5323608469
| 15> C -0.1675862784  0.3947703374 -1.4568741876
| 16> H  0.7186715055  0.3370867774 -0.8296021074
| 17> S -1.4624298549  0.7517183211  0.9190687047
| 18> O -2.4952185364 -0.1489151269  1.3856976408
| 19> O -0.0836465378  0.6615307438  1.3600395279
| 20> N -1.9641340071  2.2823921298  1.3062816006
| 21> H -2.925510801  2.4730615261  1.0358028187
| 22> H -1.3081484273  3.0023228993  1.0148261329
| 23> N -1.1205212726  0.2014984941 -5.0425918564
| 24> C  0.14567133 -0.0672930224 -5.7004848354
| 25> N  1.2365268641  0.6918269256 -5.0628139486
| 26> O  2.4947502088  0.8822129549 -2.8515119239
| 27> O  1.8292954715 -1.4005213918 -3.6597586151
| 28> C  0.0058223148  0.2205647689 -7.1856330509
| 29> Cl -0.3720453006  1.9385074398 -7.5264323856
| 30> H -1.7275870018  0.8350881909 -5.5536464695
| 31> H  0.3581114567 -1.1474887026 -5.6254383978
| 32> H -0.816093765 -0.379445755 -7.5792986787
| 33> H  0.9184563268 -0.0344185689 -7.7216078678
| 34> C  2.4850510315  0.7982748279 -5.8354166536
| 35> H  2.3155201926  1.4836404627 -6.6676720088
| 36> H  2.8368940317 -0.174922863 -6.2041081485
| 37> H  3.2477674376  1.2314113494 -5.1865813728
| 38> *
| 39>
| 40>                          ****END OF INPUT****

CARTESIAN COORDINATES (ANGSTROEM)
---------------------------------
  C     -1.401646    0.639172   -0.870878
  C     -2.529653    0.762933   -1.696245
  Cl    -4.099066    1.111478   -1.036969
  C     -2.429819    0.626789   -3.068661
  H     -3.320003    0.713200   -3.683919
  C     -1.190006    0.353041   -3.670661
  C     -0.067837    0.255320   -2.836005
  S      1.542611    0.024049   -3.532361
  C     -0.167586    0.394770   -1.456874
  H      0.718672    0.337087   -0.829602
  S     -1.462430    0.751718    0.919069
  O     -2.495219   -0.148915    1.385698
  O     -0.083647    0.661531    1.360040
  N     -1.964134    2.282392    1.306282
  H     -2.925511    2.473062    1.035803
  H     -1.308148    3.002323    1.014826
  N     -1.120521    0.201498   -5.042592
  C      0.145671   -0.067293   -5.700485
  N      1.236527    0.691827   -5.062814
  O      2.494750    0.882213   -2.851512
  O      1.829295   -1.400521   -3.659759
  C      0.005822    0.220565   -7.185633
  Cl    -0.372045    1.938507   -7.526432
  H     -1.727587    0.835088   -5.553646
  H      0.358111   -1.147489   -5.625438
  H     -0.816094   -0.379446   -7.579299
  H      0.918456   -0.034419   -7.721608
  C      2.485051    0.798275   -5.835417
  H      2.315520    1.483640   -6.667672
  H      2.836894   -0.174923   -6.204108
  H      3.247767    1.231411   -5.186581

 Total Charge           Charge          ....    0
 Multiplicity           Mult            ....    1
 Number of Electrons    NEL             ....  184
 Basis Dimension        Dim             .... 1189

ORBITAL ENERGIES
----------------

  NO   OCC          E(Eh)            E(eV)
   0   2.0000    -103.647762     -2820.3990
   1   2.0000    -103.634871     -2820.0482
   2   2.0000     -91.053280     -2477.6857
   3   2.0000     -91.051025     -2477.6243
   4   2.0000     -20.033161      -545.1300
   5   2.0000     -20.029979      -545.0434
   6   2.0000     -20.022811      -544.8484
   7   2.0000     -20.021032      -544.8000
   8   2.0000     -15.159846      -412.5204
   9   2.0000     -15.157104      -412.4458
  10   2.0000     -15.143261      -412.0691
  11   2.0000     -10.958507      -298.1961
  12   2.0000     -10.958124      -298.1857
  13   2.0000     -10.948932      -297.9356
  14   2.0000     -10.939110      -297.6683
  15   2.0000     -10.901684      -296.6499
  16   2.0000     -10.901189      -296.6364
  17   2.0000     -10.900117      -296.6073
  18   2.0000     -10.888205      -296.2831
  19   2.0000     -10.885483      -296.2091
  20   2.0000     -10.195722      -277.4397
  21   2.0000     -10.182928      -277.0915
  22   2.0000      -8.797764      -239.3993
  23   2.0000      -8.793294      -239.2777
  24   2.0000      -7.768931      -211.4034
  25   2.0000      -7.764306      -211.2775
  26   2.0000      -7.764042      -211.2703
  27   2.0000      -7.756052      -211.0529
  28   2.0000      -7.751578      -210.9312
  29   2.0000      -7.751395      -210.9262
  30   2.0000      -6.584148      -179.1638
  31   2.0000      -6.581948      -179.1039
  32   2.0000      -6.580820      -179.0732
  33   2.0000      -6.579487      -179.0369
  34   2.0000      -6.578352      -179.0061
  35   2.0000      -6.576502      -178.9557
  36   2.0000      -1.354043       -36.8454
  37   2.0000      -1.346937       -36.6520
  38   2.0000      -1.234950       -33.6047
  39   2.0000      -1.231130       -33.5007
  40   2.0000      -1.220205       -33.2035
  41   2.0000      -1.149779       -31.2871
  42   2.0000      -1.124178       -30.5904
  43   2.0000      -1.114431       -30.3252
  44   2.0000      -1.078204       -29.3394
  45   2.0000      -1.057665       -28.7805
  46   2.0000      -0.986558       -26.8456
  47   2.0000      -0.971486       -26.4355
  48   2.0000      -0.929575       -25.2950
  49   2.0000      -0.896690       -24.4002
  50   2.0000      -0.838592       -22.8193
  51   2.0000      -0.822469       -22.3805
  52   2.0000      -0.805040       -21.9062
  53   2.0000      -0.783067       -21.3083
  54   2.0000      -0.731928       -19.9168
  55   2.0000      -0.713291       -19.4096
  56   2.0000      -0.693131       -18.8611
  57   2.0000      -0.680678       -18.5222
  58   2.0000      -0.667296       -18.1580
  59   2.0000      -0.652497       -17.7553
  60   2.0000      -0.633501       -17.2384
  61   2.0000      -0.628034       -17.0897
  62   2.0000      -0.617376       -16.7997
  63   2.0000      -0.600400       -16.3377
  64   2.0000      -0.598973       -16.2989
  65   2.0000      -0.594553       -16.1786
  66   2.0000      -0.587322       -15.9818
  67   2.0000      -0.576630       -15.6909
  68   2.0000      -0.569124       -15.4866
  69   2.0000      -0.556786       -15.1509
  70   2.0000      -0.548586       -14.9278
  71   2.0000      -0.541376       -14.7316
  72   2.0000      -0.530106       -14.4249
  73   2.0000      -0.521575       -14.1928
  74   2.0000      -0.514542       -14.0014
  75   2.0000      -0.485765       -13.2183
  76   2.0000      -0.469192       -12.7674
  77   2.0000      -0.465974       -12.6798
  78   2.0000      -0.455196       -12.3865
  79   2.0000      -0.450126       -12.2486
  80   2.0000      -0.445381       -12.1194
  81   2.0000      -0.441985       -12.0270
  82   2.0000      -0.438106       -11.9215
  83   2.0000      -0.437006       -11.8915
  84   2.0000      -0.428484       -11.6596
  85   2.0000      -0.423750       -11.5308
  86   2.0000      -0.422356       -11.4929
  87   2.0000      -0.419220       -11.4076
  88   2.0000      -0.409177       -11.1343
  89   2.0000      -0.385381       -10.4867
  90   2.0000      -0.354513        -9.6468
  91   2.0000      -0.325111        -8.8467
  92   0.0000       0.002630         0.0716
  93   0.0000       0.004902         0.1334
  94   0.0000       0.011881         0.3233
  95   0.0000       0.013677         0.3722
  96   0.0000       0.018214         0.4956

MULLIKEN ATOMIC CHARGES
-----------------------
   0 C :   -0.307607
   1 C :    0.688344
   2 Cl:   -0.504472
   3 C :   -0.258852
   4 H :    0.505892
   5 C :    0.822144
   6 C :    0.658035
   7 S :    2.309439
   8 C :   -1.444894
   9 H :    0.306550
  10 S :    2.173777
  11 O :   -0.968346
  12 O :   -0.947700
  13 N :   -0.641211
  14 H :    0.152172
  15 H :    0.142563
  16 N :   -0.607724
  17 C :    0.393347
  18 N :   -0.408196
  19 O :   -1.019760
  20 O :   -1.098606
  21 C :   -0.335180
  22 Cl:   -0.354600
  23 H :   -0.003325
  24 H :    0.358619
  25 H :    0.254929
  26 H :    0.233486
  27 C :   -1.127817
  28 H :    0.313386
  29 H :    0.375350
  30 H :    0.340255
Sum of atomic charges:    0.0000000

LOEWDIN ATOMIC CHARGES
----------------------
   0 C :   -0.307071
   1 C :   -0.777487
   2 Cl:    1.070699
   3 C :    0.143699
   4 H :   -0.188111
   5 C :   -0.242983
   6 C :   -0.192368
   7 S :    0.177770
   8 C :    0.117499
   9 H :   -0.209322
  10 S :    0.096083
  11 O :    0.057692
  12 O :    0.092836
  13 N :    0.676352
  14 H :   -0.410056
  15 H :   -0.347862
  16 N :    0.568283
  17 C :   -0.369402
  18 N :    0.143097
  19 O :    0.106189
  20 O :    0.089435
  21 C :   -0.238641
  22 Cl:    0.997134
  23 H :   -0.326291
  24 H :   -0.151446
  25 H :   -0.209296
  26 H :   -0.231419
  27 C :    0.403854
  28 H :   -0.197854
  29 H :   -0.151628
  30 H :   -0.189388

  Mayer bond orders larger than 0.100000
B(  0-C ,  1-C ) :   1.2424 B(  0-C ,  2-Cl) :   0.8430 B(  0-C ,  3-C ) :  -0.3604
B(  0-C ,  5-C ) :  -0.2881 B(  0-C ,  6-C ) :   0.5493 B(  0-C ,  8-C ) :   0.9768
B(  0-C , 10-S ) :   0.8415 B(  0-C , 11-O ) :   0.2505 B(  0-C , 12-O ) :   0.2313
B(  0-C , 13-N ) :   0.1014 B(  0-C , 19-O ) :  -0.1178 B(  1-C ,  2-Cl) :  -0.1218
B(  1-C ,  3-C ) :   1.4448 B(  1-C ,  5-C ) :   0.2399 B(  1-C , 10-S ) :   0.1067
B(  2-Cl,  3-C ) :  -0.1281 B(  2-Cl,  5-C ) :  -0.1969 B(  2-Cl,  8-C ) :   0.1053
B(  3-C ,  4-H ) :   0.5368 B(  3-C ,  5-C ) :   0.3147 B(  3-C ,  8-C ) :  -0.2177
B(  3-C , 17-C ) :   0.1153 B(  4-H ,  6-C ) :   0.1398 B(  5-C ,  6-C ) :   1.0329
B(  5-C ,  7-S ) :   0.1642 B(  5-C ,  8-C ) :  -0.1738 B(  5-C , 16-N ) :   0.2853
B(  5-C , 18-N ) :  -0.1962 B(  5-C , 22-Cl) :   0.1085 B(  6-C ,  7-S ) :   0.6308
B(  6-C ,  8-C ) :   0.4539 B(  6-C , 16-N ) :  -0.2007 B(  6-C , 18-N ) :   0.2480
B(  6-C , 19-O ) :   0.4266 B(  6-C , 22-Cl) :  -0.1041 B(  7-S , 18-N ) :   1.1760
B(  7-S , 19-O ) :   0.7522 B(  7-S , 20-O ) :   0.9513 B(  8-C ,  9-H ) :   0.8424
B( 10-S , 11-O ) :   1.2848 B( 10-S , 12-O ) :   1.2245 B( 10-S , 13-N ) :   0.9037
B( 13-N , 14-H ) :   0.9408 B( 13-N , 15-H ) :   0.9607 B( 16-N , 17-C ) :   0.8330
B( 16-N , 23-H ) :   1.2074 B( 17-C , 18-N ) :   0.5292 B( 17-C , 20-O ) :   0.1381
B( 17-C , 21-C ) :   0.8109 B( 17-C , 24-H ) :   0.9259 B( 18-N , 20-O ) :   0.1237
B( 18-N , 27-C ) :   0.9023 B( 20-O , 27-C ) :   0.1260 B( 21-C , 22-Cl) :   0.7608
B( 21-C , 25-H ) :   0.9947 B( 21-C , 26-H ) :   0.9850 B( 27-C , 28-H ) :   0.9336
B( 27-C , 29-H ) :   0.8758 B( 27-C , 30-H ) :   0.9285

MP2 TOTAL ENERGY:    -2529.223985578 Eh
Dispersion correction           -0.029885061
FINAL SINGLE POINT ENERGY     -2529.253870638884

DIPOLE MOMENT
-------------
                                X             Y             Z
Electronic contribution:    -11.99969       2.43284       7.95658
Nuclear contribution   :     10.87182      -1.23877     -11.24729
                        -----------------------------------------
Total Dipole Moment    :     -1.12787       1.19407      -3.29071
                        -----------------------------------------
Magnitude (a.u.)       :      3.67786
Magnitude (Debye)      :      9.34839

Rotational constants in cm-1:     0.015147     0.004751     0.003928
Rotational constants in MHz :   454.090916   142.441911   117.766680

                             ****ORCA TERMINATED NORMALLY****
TOTAL RUN TIME: 0 days 0 hours 9 minutes 19 seconds 121 msec
