                         Program Version 5.0.3 -  RELEASE  -
|  1> !PAL8
|  2> !RI-DSD-PBEP86 D3BJ aug-cc-pVTZ aug-cc-pVTZ/C TightSCF
|  3> %maxcore 5000
|  4>
|  5> * xyz 0 1
|  6> C -1.4372666619  1.2062764814 -0.4551513409
|  7> S -1.4778877324  0.7951256752  1.2714049077
|  8> O -0.0978947953  0.7946157991  1.7131103796
|  9> O -2.5206487095  1.6011671512  1.8716380578
| 10> N -1.9972520547 -0.7743240699  1.3857326507
| 11> H -1.3622099102 -1.4415323956  0.9560937653
| 12> H -2.9647939021 -0.8985301786  1.0986258842
| 13> S -2.86798596  1.6669477589 -1.2948770075
| 14> C -1.952947271  1.7467822133 -2.7617166136
| 15> C -0.6083493597  1.4857919475 -2.5943499099
| 16> C -0.3170374057  1.158352633 -1.2299448771
| 17> S -2.6590515237  2.1955286164 -4.3083647986
| 18> N  0.3472690102  1.6131577692 -3.5801647512
| 19> H  0.6679619968  0.92928923 -0.8372322787
| 20> C -1.1604478002  2.7745361575 -5.138712282
| 21> C -0.0758330395  1.7102598212 -4.9697627047
| 22> O -3.1250047583  1.0021421375 -5.0145715469
| 23> O -3.5823312107  3.3097141824 -4.1033097297
| 24> C -1.5186858368  3.0563081703 -6.5985875308
| 25> C -0.4383620601  3.877706894 -7.3020712983
| 26> O -0.1220495595  5.0660798826 -6.6030924664
| 27> H  1.2095502919  1.1104493502 -3.4173821562
| 28> H -0.8742938202  3.6994153006 -4.6253111519
| 29> H  0.7953549144  2.0017649974 -5.562109944
| 30> H -0.4562599398  0.7510291661 -5.354431393
| 31> H -2.4664268807  3.6094601687 -6.6295059751
| 32> H -1.6843103525  2.1132967421 -7.1331053533
| 33> H -0.7596894305  4.093020653 -8.329461556
| 34> H  0.5010876972  3.3209003556 -7.3670246512
| 35> H -0.8787349358  5.6693663897 -6.6347093283
| 36> *
| 37>
| 38>
| 39>
| 40>                          ****END OF INPUT****

CARTESIAN COORDINATES (ANGSTROEM)
---------------------------------
  C     -1.437267    1.206276   -0.455151
  S     -1.477888    0.795126    1.271405
  O     -0.097895    0.794616    1.713110
  O     -2.520649    1.601167    1.871638
  N     -1.997252   -0.774324    1.385733
  H     -1.362210   -1.441532    0.956094
  H     -2.964794   -0.898530    1.098626
  S     -2.867986    1.666948   -1.294877
  C     -1.952947    1.746782   -2.761717
  C     -0.608349    1.485792   -2.594350
  C     -0.317037    1.158353   -1.229945
  S     -2.659052    2.195529   -4.308365
  N      0.347269    1.613158   -3.580165
  H      0.667962    0.929289   -0.837232
  C     -1.160448    2.774536   -5.138712
  C     -0.075833    1.710260   -4.969763
  O     -3.125005    1.002142   -5.014572
  O     -3.582331    3.309714   -4.103310
  C     -1.518686    3.056308   -6.598588
  C     -0.438362    3.877707   -7.302071
  O     -0.122050    5.066080   -6.603092
  H      1.209550    1.110449   -3.417382
  H     -0.874294    3.699415   -4.625311
  H      0.795355    2.001765   -5.562110
  H     -0.456260    0.751029   -5.354431
  H     -2.466427    3.609460   -6.629506
  H     -1.684310    2.113297   -7.133105
  H     -0.759689    4.093021   -8.329462
  H      0.501088    3.320900   -7.367025
  H     -0.878735    5.669366   -6.634709

 Total Charge           Charge          ....    0
 Multiplicity           Mult            ....    1
 Number of Electrons    NEL             ....  162
 Basis Dimension        Dim             .... 1116

ORBITAL ENERGIES
----------------

  NO   OCC          E(Eh)            E(eV)
   0   2.0000     -91.062166     -2477.9275
   1   2.0000     -91.029094     -2477.0276
   2   2.0000     -90.876153     -2472.8659
   3   2.0000     -20.045992      -545.4792
   4   2.0000     -20.033135      -545.1293
   5   2.0000     -20.031900      -545.0957
   6   2.0000     -20.020458      -544.7843
   7   2.0000     -20.018075      -544.7195
   8   2.0000     -15.152691      -412.3257
   9   2.0000     -15.149620      -412.2421
  10   2.0000     -10.933625      -297.5191
  11   2.0000     -10.924989      -297.2841
  12   2.0000     -10.907964      -296.8208
  13   2.0000     -10.903574      -296.7013
  14   2.0000     -10.902486      -296.6717
  15   2.0000     -10.895208      -296.4737
  16   2.0000     -10.888694      -296.2964
  17   2.0000     -10.862171      -295.5747
  18   2.0000      -8.804185      -239.5740
  19   2.0000      -8.776122      -238.8104
  20   2.0000      -8.650827      -235.4010
  21   2.0000      -6.590368      -179.3330
  22   2.0000      -6.589416      -179.3071
  23   2.0000      -6.587310      -179.2498
  24   2.0000      -6.561866      -178.5574
  25   2.0000      -6.560042      -178.5078
  26   2.0000      -6.559353      -178.4891
  27   2.0000      -6.433453      -175.0632
  28   2.0000      -6.430895      -174.9935
  29   2.0000      -6.429893      -174.9663
  30   2.0000      -1.356932       -36.9240
  31   2.0000      -1.329882       -36.1879
  32   2.0000      -1.263375       -34.3782
  33   2.0000      -1.241940       -33.7949
  34   2.0000      -1.218574       -33.1591
  35   2.0000      -1.188681       -32.3456
  36   2.0000      -1.127274       -30.6747
  37   2.0000      -1.102074       -29.9890
  38   2.0000      -1.027729       -27.9659
  39   2.0000      -0.969188       -26.3730
  40   2.0000      -0.944819       -25.7098
  41   2.0000      -0.914945       -24.8969
  42   2.0000      -0.858427       -23.3590
  43   2.0000      -0.832100       -22.6426
  44   2.0000      -0.799783       -21.7632
  45   2.0000      -0.761287       -20.7157
  46   2.0000      -0.737753       -20.0753
  47   2.0000      -0.693259       -18.8645
  48   2.0000      -0.688825       -18.7439
  49   2.0000      -0.674854       -18.3637
  50   2.0000      -0.668648       -18.1948
  51   2.0000      -0.644168       -17.5287
  52   2.0000      -0.635808       -17.3012
  53   2.0000      -0.632668       -17.2158
  54   2.0000      -0.620313       -16.8796
  55   2.0000      -0.599755       -16.3202
  56   2.0000      -0.589356       -16.0372
  57   2.0000      -0.582759       -15.8577
  58   2.0000      -0.571421       -15.5491
  59   2.0000      -0.565828       -15.3970
  60   2.0000      -0.555170       -15.1069
  61   2.0000      -0.542476       -14.7615
  62   2.0000      -0.535733       -14.5780
  63   2.0000      -0.519289       -14.1306
  64   2.0000      -0.504857       -13.7379
  65   2.0000      -0.482961       -13.1420
  66   2.0000      -0.475531       -12.9399
  67   2.0000      -0.469714       -12.7816
  68   2.0000      -0.458179       -12.4677
  69   2.0000      -0.456607       -12.4249
  70   2.0000      -0.453517       -12.3408
  71   2.0000      -0.445570       -12.1246
  72   2.0000      -0.440704       -11.9922
  73   2.0000      -0.435234       -11.8433
  74   2.0000      -0.428166       -11.6510
  75   2.0000      -0.425555       -11.5799
  76   2.0000      -0.417626       -11.3642
  77   2.0000      -0.412175       -11.2159
  78   2.0000      -0.391105       -10.6425
  79   2.0000      -0.349673        -9.5151
  80   2.0000      -0.305723        -8.3191
  81   0.0000      -0.005146        -0.1400
  82   0.0000       0.002969         0.0808
  83   0.0000       0.011773         0.3203
  84   0.0000       0.015894         0.4325
  85   0.0000       0.023260         0.6329

MULLIKEN ATOMIC CHARGES
-----------------------
   0 C :    0.760855
   1 S :    2.092189
   2 O :   -0.930824
   3 O :   -0.930121
   4 N :   -0.598949
   5 H :    0.141502
   6 H :    0.162442
   7 S :   -0.491669
   8 C :   -0.096998
   9 C :    0.624438
  10 C :   -1.104617
  11 S :    2.127457
  12 N :   -0.556853
  13 H :    0.378461
  14 C :    0.501346
  15 C :   -0.426396
  16 O :   -1.097101
  17 O :   -1.064873
  18 C :   -0.799308
  19 C :   -0.359517
  20 O :   -0.607055
  21 H :   -0.016265
  22 H :    0.383698
  23 H :    0.304494
  24 H :    0.249959
  25 H :    0.271964
  26 H :    0.243015
  27 H :    0.300708
  28 H :    0.385767
  29 H :    0.152252
Sum of atomic charges:   -0.0000000

LOEWDIN ATOMIC CHARGES
----------------------
   0 C :   -0.665502
   1 S :    0.043053
   2 O :    0.072875
   3 O :    0.059275
   4 N :    0.680185
   5 H :   -0.349877
   6 H :   -0.353506
   7 S :    1.273339
   8 C :   -0.617302
   9 C :   -0.366795
  10 C :    0.102623
  11 S :    0.209184
  12 N :    0.570167
  13 H :   -0.180127
  14 C :   -0.114610
  15 C :    0.176377
  16 O :    0.066977
  17 O :    0.056978
  18 C :    0.248810
  19 C :    0.036313
  20 O :    0.824753
  21 H :   -0.266702
  22 H :   -0.163857
  23 H :   -0.141263
  24 H :   -0.133395
  25 H :   -0.151227
  26 H :   -0.140984
  27 H :   -0.143226
  28 H :   -0.167165
  29 H :   -0.465372

  Mayer bond orders larger than 0.100000
B(  0-C ,  1-S ) :   0.9336 B(  0-C ,  3-O ) :   0.1960 B(  0-C ,  7-S ) :   0.8522
B(  0-C ,  9-C ) :  -0.1225 B(  0-C , 10-C ) :   0.8744 B(  1-S ,  2-O ) :   1.2643
B(  1-S ,  3-O ) :   1.2343 B(  1-S ,  4-N ) :   0.9385 B(  4-N ,  5-H ) :   0.9637
B(  4-N ,  6-H ) :   0.9386 B(  7-S ,  8-C ) :   0.8123 B(  7-S ,  9-C ) :   0.2525
B(  7-S , 10-C ) :   0.1023 B(  7-S , 11-S ) :  -0.1782 B(  8-C ,  9-C ) :   1.2865
B(  8-C , 10-C ) :   0.1187 B(  8-C , 11-S ) :   1.0048 B(  8-C , 12-N ) :  -0.1229
B(  8-C , 14-C ) :   0.1465 B(  8-C , 17-O ) :   0.2073 B(  9-C , 10-C ) :   0.6516
B(  9-C , 12-N ) :   1.0158 B(  9-C , 14-C ) :  -0.1274 B( 10-C , 13-H ) :   0.9345
B( 11-S , 14-C ) :   0.9690 B( 11-S , 15-C ) :   0.1266 B( 11-S , 16-O ) :   1.1314
B( 11-S , 17-O ) :   0.9419 B( 11-S , 22-H ) :  -0.1078 B( 12-N , 15-C ) :   0.7544
B( 12-N , 21-H ) :   1.1596 B( 14-C , 15-C ) :   0.8255 B( 14-C , 18-C ) :   0.7314
B( 14-C , 22-H ) :   0.7615 B( 15-C , 18-C ) :   0.1040 B( 15-C , 23-H ) :   0.9234
B( 15-C , 24-H ) :   0.9784 B( 18-C , 19-C ) :   0.9116 B( 18-C , 25-H ) :   0.9412
B( 18-C , 26-H ) :   1.0065 B( 19-C , 20-O ) :   0.8252 B( 19-C , 27-H ) :   0.9925
B( 19-C , 28-H ) :   0.8926 B( 20-O , 29-H ) :   1.0221

MP2 TOTAL ENERGY:    -1990.330500914 Eh
Dispersion correction           -0.026445567
FINAL SINGLE POINT ENERGY     -1990.356946480243

DIPOLE MOMENT
-------------
                                X             Y             Z
Electronic contribution:     -8.58095      -3.80658      20.00250
Nuclear contribution   :     10.21537       2.59566     -22.07025
                        -----------------------------------------
Total Dipole Moment    :      1.63442      -1.21091      -2.06775
                        -----------------------------------------
Magnitude (a.u.)       :      2.90056
Magnitude (Debye)      :      7.37263

Rotational constants in cm-1:     0.027081     0.005236     0.004870
Rotational constants in MHz :   811.867197   156.960444   145.996723

                             ****ORCA TERMINATED NORMALLY****
TOTAL RUN TIME: 0 days 0 hours 7 minutes 41 seconds 206 msec
