                         Program Version 5.0.3 -  RELEASE  -
|  1> !PAL8
|  2> !RI-DSD-PBEP86 D3BJ aug-cc-pVTZ aug-cc-pVTZ/C TightSCF
|  3> %maxcore 3000
|  4>
|  5>
|  6> * xyz 0 1
|  7> C -1.3871951978  0.3018223486 -1.1272016414
|  8> C -2.492358695  0.6681482678 -1.9091716409
|  9> Cl -4.042285176  1.0028713706 -1.1924949971
| 10> C -2.3953406965  0.7639764177 -3.2874728345
| 11> H -3.2671531259  1.0471515533 -3.8693575988
| 12> C -1.1708088963  0.4980302054 -3.9171700364
| 13> C -0.0659346743  0.1093120216 -3.1416703808
| 14> C  1.207998689 -0.2980004201 -3.8010007077
| 15> C -0.1831475287  0.0121108133 -1.7604777105
| 16> H  0.6772759916 -0.3007768147 -1.1754967095
| 17> S -1.4271846444  0.225618972  0.662221561
| 18> O -0.1238650092 -0.2661555887  1.0675920601
| 19> O -1.9747443576  1.4739230581  1.1539465284
| 20> N -2.5099041592 -0.9576951658  1.0913820343
| 21> H -2.2258562313 -1.8812810995  0.7748455314
| 22> H -3.4691807604 -0.7268967644  0.8450855324
| 23> N -1.0252784104  0.5450982191 -5.286903057
| 24> C  0.3024182805  0.8556652847 -5.8052623941
| 25> N  1.2848484635 -0.0076533263 -5.1437086134
| 26> C  0.665673469  2.3346153042 -5.6632773292
| 27> H -1.7792833665  0.9962151253 -5.7915895838
| 28> H  0.305524927  0.5794628354 -6.8630064392
| 29> H  1.6679260049  2.5137449181 -6.0655868
| 30> H  0.6476917525  2.633335925 -4.6097621199
| 31> O  2.0907794994 -0.8838503379 -3.1973855957
| 32> C  2.464024255 -0.3370469246 -5.8893824143
| 33> C  3.7124956712  0.2126057192 -5.5624622437
| 34> C  3.9151803827  1.1265424246 -4.3844547504
| 35> C  4.8010079106 -0.13714435 -6.3706946061
| 36> H  5.7775933508  0.2778116295 -6.1331838564
| 37> C  4.6633811919 -0.9898364941 -7.4610251809
| 38> H  5.5299406972 -1.2370838772 -8.066999969
| 39> C  3.4139559187 -1.525030121 -7.7710289249
| 40> H  3.2946091475 -2.1993626853 -8.6133358365
| 41> C  2.3195805473 -1.1985232181 -6.9790328557
| 42> H  1.3392766159 -1.6216615433 -7.1846137087
| 43> H -0.0447759422  2.9564099667 -6.2180958903
| 44> H  4.770987932  1.7855188443 -4.5544261462
| 45> H  4.0953618903  0.538291521 -3.4791325662
| 46> H  3.0354572834  1.7472949856 -4.1904321083
| 47> *
| 48>
| 49>                          ****END OF INPUT****

CARTESIAN COORDINATES (ANGSTROEM)
---------------------------------
  C     -1.387195    0.301822   -1.127202
  C     -2.492359    0.668148   -1.909172
  Cl    -4.042285    1.002871   -1.192495
  C     -2.395341    0.763976   -3.287473
  H     -3.267153    1.047152   -3.869358
  C     -1.170809    0.498030   -3.917170
  C     -0.065935    0.109312   -3.141670
  C      1.207999   -0.298000   -3.801001
  C     -0.183148    0.012111   -1.760478
  H      0.677276   -0.300777   -1.175497
  S     -1.427185    0.225619    0.662222
  O     -0.123865   -0.266156    1.067592
  O     -1.974744    1.473923    1.153947
  N     -2.509904   -0.957695    1.091382
  H     -2.225856   -1.881281    0.774846
  H     -3.469181   -0.726897    0.845086
  N     -1.025278    0.545098   -5.286903
  C      0.302418    0.855665   -5.805262
  N      1.284848   -0.007653   -5.143709
  C      0.665673    2.334615   -5.663277
  H     -1.779283    0.996215   -5.791590
  H      0.305525    0.579463   -6.863006
  H      1.667926    2.513745   -6.065587
  H      0.647692    2.633336   -4.609762
  O      2.090779   -0.883850   -3.197386
  C      2.464024   -0.337047   -5.889382
  C      3.712496    0.212606   -5.562462
  C      3.915180    1.126542   -4.384455
  C      4.801008   -0.137144   -6.370695
  H      5.777593    0.277812   -6.133184
  C      4.663381   -0.989836   -7.461025
  H      5.529941   -1.237084   -8.067000
  C      3.413956   -1.525030   -7.771029
  H      3.294609   -2.199363   -8.613336
  C      2.319581   -1.198523   -6.979033
  H      1.339277   -1.621662   -7.184614
  H     -0.044776    2.956410   -6.218096
  H      4.770988    1.785519   -4.554426
  H      4.095362    0.538292   -3.479133
  H      3.035457    1.747295   -4.190432

 Total Charge           Charge          ....    0
 Multiplicity           Mult            ....    1
 Number of Electrons    NEL             ....  190
 Basis Dimension        Dim             .... 1480

ORBITAL ENERGIES
----------------

  NO   OCC          E(Eh)            E(eV)
   0   2.0000    -103.639924     -2820.1857
   1   2.0000     -91.041591     -2477.3676
   2   2.0000     -20.013758      -544.6020
   3   2.0000     -20.012220      -544.5602
   4   2.0000     -19.996283      -544.1265
   5   2.0000     -15.146694      -412.1625
   6   2.0000     -15.144587      -412.1052
   7   2.0000     -15.134911      -411.8419
   8   2.0000     -10.962022      -298.2918
   9   2.0000     -10.948487      -297.9235
  10   2.0000     -10.942150      -297.7510
  11   2.0000     -10.929822      -297.4156
  12   2.0000     -10.887889      -296.2745
  13   2.0000     -10.885879      -296.2198
  14   2.0000     -10.880986      -296.0867
  15   2.0000     -10.873841      -295.8923
  16   2.0000     -10.867428      -295.7178
  17   2.0000     -10.857333      -295.4431
  18   2.0000     -10.849130      -295.2198
  19   2.0000     -10.848088      -295.1915
  20   2.0000     -10.846003      -295.1348
  21   2.0000     -10.844845      -295.1032
  22   2.0000     -10.842465      -295.0385
  23   2.0000     -10.826424      -294.6020
  24   2.0000     -10.187870      -277.2260
  25   2.0000      -8.783970      -239.0240
  26   2.0000      -7.761064      -211.1893
  27   2.0000      -7.756489      -211.0648
  28   2.0000      -7.756224      -211.0576
  29   2.0000      -6.570148      -178.7828
  30   2.0000      -6.568981      -178.7511
  31   2.0000      -6.567229      -178.7034
  32   2.0000      -1.337538       -36.3963
  33   2.0000      -1.276792       -34.7433
  34   2.0000      -1.221672       -33.2434
  35   2.0000      -1.207836       -32.8669
  36   2.0000      -1.144915       -31.1547
  37   2.0000      -1.114783       -30.3348
  38   2.0000      -1.104572       -30.0569
  39   2.0000      -1.053285       -28.6613
  40   2.0000      -1.047024       -28.4910
  41   2.0000      -0.978126       -26.6162
  42   2.0000      -0.960397       -26.1337
  43   2.0000      -0.954522       -25.9739
  44   2.0000      -0.935357       -25.4524
  45   2.0000      -0.916176       -24.9304
  46   2.0000      -0.856331       -23.3019
  47   2.0000      -0.837081       -22.7781
  48   2.0000      -0.814142       -22.1539
  49   2.0000      -0.802987       -21.8504
  50   2.0000      -0.776759       -21.1367
  51   2.0000      -0.756427       -20.5834
  52   2.0000      -0.742292       -20.1988
  53   2.0000      -0.703283       -19.1373
  54   2.0000      -0.687673       -18.7125
  55   2.0000      -0.683564       -18.6007
  56   2.0000      -0.659080       -17.9345
  57   2.0000      -0.652885       -17.7659
  58   2.0000      -0.627820       -17.0838
  59   2.0000      -0.617179       -16.7943
  60   2.0000      -0.611617       -16.6429
  61   2.0000      -0.603432       -16.4202
  62   2.0000      -0.599002       -16.2997
  63   2.0000      -0.589165       -16.0320
  64   2.0000      -0.581056       -15.8113
  65   2.0000      -0.575893       -15.6708
  66   2.0000      -0.560671       -15.2566
  67   2.0000      -0.560336       -15.2475
  68   2.0000      -0.547412       -14.8958
  69   2.0000      -0.540179       -14.6990
  70   2.0000      -0.534247       -14.5376
  71   2.0000      -0.525454       -14.2983
  72   2.0000      -0.522930       -14.2296
  73   2.0000      -0.518922       -14.1206
  74   2.0000      -0.510792       -13.8994
  75   2.0000      -0.496239       -13.5034
  76   2.0000      -0.491870       -13.3845
  77   2.0000      -0.483866       -13.1667
  78   2.0000      -0.470756       -12.8099
  79   2.0000      -0.457627       -12.4527
  80   2.0000      -0.455869       -12.4048
  81   2.0000      -0.454565       -12.3693
  82   2.0000      -0.449230       -12.2242
  83   2.0000      -0.440972       -11.9994
  84   2.0000      -0.436850       -11.8873
  85   2.0000      -0.431598       -11.7444
  86   2.0000      -0.414764       -11.2863
  87   2.0000      -0.409474       -11.1423
  88   2.0000      -0.404331       -11.0024
  89   2.0000      -0.380616       -10.3571
  90   2.0000      -0.367500       -10.0002
  91   2.0000      -0.342082        -9.3085
  92   2.0000      -0.318531        -8.6677
  93   2.0000      -0.312097        -8.4926
  94   2.0000      -0.302380        -8.2282
  95   0.0000       0.001838         0.0500
  96   0.0000       0.003672         0.0999
  97   0.0000       0.014866         0.4045
  98   0.0000       0.017419         0.4740
  99   0.0000       0.018858         0.5132

MULLIKEN ATOMIC CHARGES
-----------------------
   0 C :   -0.574514
   1 C :    0.761454
   2 Cl:   -0.542996
   3 C :   -0.716898
   4 H :    0.411523
   5 C :    1.467653
   6 C :    1.932163
   7 C :    0.196973
   8 C :   -1.708301
   9 H :   -0.014739
  10 S :    2.118472
  11 O :   -0.957260
  12 O :   -0.967741
  13 N :   -0.648358
  14 H :    0.146672
  15 H :    0.148978
  16 N :   -0.725358
  17 C :    0.354084
  18 N :   -0.078904
  19 C :   -1.039128
  20 H :   -0.125719
  21 H :    0.346732
  22 H :    0.379388
  23 H :    0.341678
  24 O :   -1.249458
  25 C :    1.328699
  26 C :    1.264053
  27 C :   -0.961988
  28 C :   -1.009470
  29 H :   -0.039899
  30 C :   -0.305901
  31 H :    0.687943
  32 C :   -0.680108
  33 H :    0.529487
  34 C :   -1.455025
  35 H :    0.336302
  36 H :    0.171763
  37 H :    0.152232
  38 H :    0.319394
  39 H :    0.406121
Sum of atomic charges:   -0.0000000

LOEWDIN ATOMIC CHARGES
----------------------
   0 C :   -0.303861
   1 C :   -0.778592
   2 Cl:    1.061743
   3 C :    0.149140
   4 H :   -0.192765
   5 C :   -0.221278
   6 C :   -0.077732
   7 C :   -0.648903
   8 C :    0.167440
   9 H :   -0.202249
  10 S :    0.091955
  11 O :    0.088558
  12 O :    0.052279
  13 N :    0.675393
  14 H :   -0.350856
  15 H :   -0.414719
  16 N :    0.608604
  17 C :   -0.196734
  18 N :    0.286641
  19 C :    0.624504
  20 H :   -0.260973
  21 H :   -0.131800
  22 H :   -0.156981
  23 H :   -0.152319
  24 O :    0.516445
  25 C :   -0.205742
  26 C :   -0.085852
  27 C :    0.577477
  28 C :    0.221660
  29 H :   -0.171954
  30 C :    0.203365
  31 H :   -0.178200
  32 C :    0.203450
  33 H :   -0.180042
  34 C :    0.224399
  35 H :   -0.163294
  36 H :   -0.151569
  37 H :   -0.163900
  38 H :   -0.173997
  39 H :   -0.188742

  Mayer bond orders larger than 0.100000
B(  0-C ,  1-C ) :   1.5805 B(  0-C ,  2-Cl) :   0.9315 B(  0-C ,  3-C ) :  -0.1313
B(  0-C ,  5-C ) :  -0.5723 B(  0-C ,  6-C ) :   0.3352 B(  0-C ,  7-C ) :  -0.1280
B(  0-C ,  8-C ) :   1.2759 B(  0-C ,  9-H ) :  -0.1549 B(  0-C , 10-S ) :   0.7865
B(  0-C , 11-O ) :   0.3323 B(  0-C , 12-O ) :   0.3524 B(  0-C , 25-C ) :  -0.1398
B(  0-C , 26-C ) :   0.2354 B(  0-C , 28-C ) :   0.1338 B(  0-C , 29-H ) :  -0.4194
B(  0-C , 33-H ) :   0.4197 B(  1-C ,  2-Cl) :  -0.1247 B(  1-C ,  3-C ) :   1.4097
B(  1-C ,  4-H ) :  -0.1337 B(  1-C ,  5-C ) :   0.3295 B(  1-C ,  6-C ) :  -0.3320
B(  1-C ,  7-C ) :   0.2215 B(  1-C ,  8-C ) :   0.1448 B(  1-C , 12-O ) :  -0.1144
B(  1-C , 18-N ) :  -0.1330 B(  1-C , 26-C ) :   0.3217 B(  1-C , 29-H ) :   0.3489
B(  1-C , 30-C ) :  -0.1493 B(  1-C , 33-H ) :  -0.1863 B(  1-C , 34-C ) :  -0.1124
B(  2-Cl,  3-C ) :  -0.2048 B(  2-Cl,  5-C ) :  -0.2516 B(  3-C ,  4-H ) :   0.6597
B(  3-C ,  5-C ) :  -0.6276 B(  3-C ,  6-C ) :   0.2967 B(  3-C ,  8-C ) :  -0.1710
B(  3-C , 12-O ) :  -0.1193 B(  3-C , 16-N ) :  -0.1560 B(  3-C , 25-C ) :   0.1718
B(  3-C , 26-C ) :   0.2575 B(  3-C , 29-H ) :  -0.3544 B(  3-C , 30-C ) :  -0.2680
B(  3-C , 33-H ) :   0.1540 B(  4-H ,  6-C ) :   0.2254 B(  4-H ,  8-C ) :   0.1594
B(  4-H , 29-H ) :   0.1661 B(  5-C ,  6-C ) :   1.1632 B(  5-C ,  7-C ) :   0.5603
B(  5-C ,  8-C ) :  -1.0271 B(  5-C , 16-N ) :   0.6762 B(  5-C , 17-C ) :  -0.2773
B(  5-C , 18-N ) :  -0.1935 B(  5-C , 19-C ) :   0.1117 B(  5-C , 20-H ) :  -0.1072
B(  5-C , 25-C ) :   0.1371 B(  5-C , 26-C ) :  -0.1037 B(  5-C , 29-H ) :  -0.1375
B(  5-C , 30-C ) :   0.2545 B(  5-C , 33-H ) :  -0.1668 B(  5-C , 34-C ) :   0.1410
B(  6-C ,  8-C ) :  -0.5801 B(  6-C ,  9-H ) :  -0.2941 B(  6-C , 11-O ) :  -0.1418
B(  6-C , 16-N ) :  -0.4267 B(  6-C , 17-C ) :   0.2052 B(  6-C , 19-C ) :  -0.1055
B(  6-C , 24-O ) :   0.1784 B(  6-C , 25-C ) :   0.2781 B(  6-C , 26-C ) :  -0.5564
B(  6-C , 28-C ) :   0.1147 B(  6-C , 29-H ) :   0.3838 B(  6-C , 33-H ) :  -0.1292
B(  6-C , 34-C ) :  -0.2067 B(  6-C , 35-H ) :   0.1709 B(  7-C ,  8-C ) :   0.2685
B(  7-C , 16-N ) :   0.2793 B(  7-C , 17-C ) :  -0.3483 B(  7-C , 18-N ) :   1.1151
B(  7-C , 24-O ) :   0.2481 B(  7-C , 25-C ) :  -0.8655 B(  7-C , 26-C ) :   0.4294
B(  7-C , 28-C ) :  -0.1234 B(  7-C , 34-C ) :   0.3264 B(  8-C ,  9-H ) :   1.7409
B(  8-C , 10-S ) :   0.1392 B(  8-C , 11-O ) :  -0.2360 B(  8-C , 18-N ) :   0.1671
B(  8-C , 26-C ) :  -0.2772 B(  8-C , 28-C ) :  -0.1548 B(  8-C , 29-H ) :   0.1551
B(  8-C , 30-C ) :   0.2434 B(  8-C , 33-H ) :  -0.2145 B(  8-C , 35-H ) :   0.1278
B(  9-H , 24-O ) :   0.1185 B( 10-S , 11-O ) :   1.2124 B( 10-S , 12-O ) :   1.2917
B( 10-S , 13-N ) :   0.9083 B( 10-S , 33-H ) :   0.1162 B( 13-N , 14-H ) :   0.9430
B( 13-N , 15-H ) :   0.9345 B( 16-N , 17-C ) :   0.5441 B( 16-N , 20-H ) :   1.2687
B( 17-C , 18-N ) :   0.8508 B( 17-C , 19-C ) :   0.7836 B( 17-C , 21-H ) :   0.9191
B( 17-C , 25-C ) :  -0.1308 B( 18-N , 24-O ) :  -0.1111 B( 18-N , 25-C ) :   0.8015
B( 18-N , 30-C ) :   0.1414 B( 18-N , 34-C ) :   0.4039 B( 19-C , 22-H ) :   0.8549
B( 19-C , 23-H ) :   0.9757 B( 19-C , 36-H ) :   1.0463 B( 24-O , 26-C ) :  -0.1865
B( 25-C , 26-C ) :   0.6219 B( 25-C , 27-C ) :   0.2580 B( 25-C , 28-C ) :   0.1798
B( 25-C , 29-H ) :   0.2077 B( 25-C , 30-C ) :  -0.2793 B( 25-C , 32-C ) :  -0.2069
B( 25-C , 34-C ) :  -0.5951 B( 26-C , 27-C ) :   0.2401 B( 26-C , 28-C ) :   0.4924
B( 26-C , 29-H ) :  -0.2853 B( 26-C , 30-C ) :   0.3040 B( 26-C , 32-C ) :   0.3122
B( 26-C , 33-H ) :   0.2190 B( 27-C , 28-C ) :   0.1898 B( 27-C , 37-H ) :   1.0973
B( 27-C , 38-H ) :   0.9709 B( 27-C , 39-H ) :   0.7802 B( 28-C , 29-H ) :   1.7150
B( 28-C , 30-C ) :   1.1059 B( 28-C , 32-C ) :  -0.2959 B( 28-C , 33-H ) :  -0.1065
B( 29-H , 30-C ) :  -0.1268 B( 30-C , 31-H ) :   0.4198 B( 30-C , 32-C ) :   1.1850
B( 30-C , 33-H ) :  -0.1199 B( 30-C , 34-C ) :   0.3066 B( 32-C , 33-H ) :   0.6554
B( 32-C , 34-C ) :   1.2393 B( 34-C , 35-H ) :   0.7505

MP2 TOTAL ENERGY:    -1865.671710916 Eh
Dispersion correction           -0.034717201
FINAL SINGLE POINT ENERGY     -1865.706428117124

DIPOLE MOMENT
-------------
                                X             Y             Z
Electronic contribution:    -24.24022      -2.25528      22.82544
Nuclear contribution   :     23.15541       2.39591     -26.26035
                        -----------------------------------------
Total Dipole Moment    :     -1.08481       0.14062      -3.43491
                        -----------------------------------------
Magnitude (a.u.)       :      3.60488
Magnitude (Debye)      :      9.16289

Rotational constants in cm-1:     0.016716     0.003449     0.003100
Rotational constants in MHz :   501.130775   103.384797    92.945724

                             ****ORCA TERMINATED NORMALLY****
TOTAL RUN TIME: 0 days 0 hours 22 minutes 41 seconds 945 msec
