                         Program Version 5.0.3 -  RELEASE  -
|  1> !PAL8
|  2> !RI-DSD-PBEP86 D3BJ aug-cc-pVTZ aug-cc-pVTZ/C TightSCF
|  3> %maxcore 5000
|  4>
|  5> * xyz 0 1
|  6> C -0.9472603433  0.6430934551 -1.4102926696
|  7> S -1.1854166864  0.6111350531  0.3688335615
|  8> O  0.1032752121  0.2481523286  0.9260651974
|  9> O -1.8842371772  1.8217823175  0.7413122531
| 10> N -2.2224983813 -0.6438806291  0.6446050168
| 11> H -1.8214488257 -1.5430650616  0.3889839192
| 12> H -3.1324898964 -0.4881616497  0.2154522924
| 13> N -1.9225700517  0.4547591129 -2.2242550763
| 14> C -1.4764709376  0.5865324011 -3.5282582401
| 15> C -0.1087301739  0.8860488941 -3.6608408961
| 16> S  0.6258150332  0.9873001222 -2.0856404755
| 17> C -2.268483646  0.4451005403 -4.6809569742
| 18> C -1.683558724  0.6060421853 -5.9158458533
| 19> C -0.3053311448  0.9080203548 -6.0368154786
| 20> C  0.5002269585  1.0502937115 -4.9120517753
| 21> O  0.1385358703  1.0402524734 -7.3089294245
| 22> C  1.5099356114  1.3493153149 -7.5181834797
| 23> C  1.7313497853  1.4431587647 -9.0128836717
| 24> H -3.324581974  0.2169544002 -4.5799372282
| 25> H -2.2586537013  0.5091698198 -6.8306231184
| 26> H  1.5558474128  1.280702112 -4.9867382025
| 27> H  2.1327344657  0.5603956722 -7.0750122498
| 28> H  1.7485034296  2.3000426452 -7.0224677176
| 29> H  1.4845400203  0.4938756883 -9.495351294
| 30> H  2.7782999991  1.6804504193 -9.222161241
| 31> H  1.1022848653  2.226766554 -9.4430241741
| 32> *
| 33>
| 34>                          ****END OF INPUT****

CARTESIAN COORDINATES (ANGSTROEM)
---------------------------------
  C     -0.947260    0.643093   -1.410293
  S     -1.185417    0.611135    0.368834
  O      0.103275    0.248152    0.926065
  O     -1.884237    1.821782    0.741312
  N     -2.222498   -0.643881    0.644605
  H     -1.821449   -1.543065    0.388984
  H     -3.132490   -0.488162    0.215452
  N     -1.922570    0.454759   -2.224255
  C     -1.476471    0.586532   -3.528258
  C     -0.108730    0.886049   -3.660841
  S      0.625815    0.987300   -2.085640
  C     -2.268484    0.445101   -4.680957
  C     -1.683559    0.606042   -5.915846
  C     -0.305331    0.908020   -6.036815
  C      0.500227    1.050294   -4.912052
  O      0.138536    1.040252   -7.308929
  C      1.509936    1.349315   -7.518183
  C      1.731350    1.443159   -9.012884
  H     -3.324582    0.216954   -4.579937
  H     -2.258654    0.509170   -6.830623
  H      1.555847    1.280702   -4.986738
  H      2.132734    0.560396   -7.075012
  H      1.748503    2.300043   -7.022468
  H      1.484540    0.493876   -9.495351
  H      2.778300    1.680450   -9.222161
  H      1.102285    2.226767   -9.443024

 Total Charge           Charge          ....    0
 Multiplicity           Mult            ....    1
 Number of Electrons    NEL             ....  134
 Basis Dimension        Dim             ....  974

ORBITAL ENERGIES
----------------

  NO   OCC          E(Eh)            E(eV)
   0   2.0000     -91.054054     -2477.7068
   1   2.0000     -90.866994     -2472.6166
   2   2.0000     -20.071002      -546.1597
   3   2.0000     -20.027537      -544.9770
   4   2.0000     -20.025568      -544.9234
   5   2.0000     -15.146586      -412.1596
   6   2.0000     -15.139593      -411.9693
   7   2.0000     -10.945387      -297.8391
   8   2.0000     -10.926883      -297.3356
   9   2.0000     -10.904728      -296.7327
  10   2.0000     -10.900788      -296.6255
  11   2.0000     -10.889724      -296.3244
  12   2.0000     -10.865609      -295.6683
  13   2.0000     -10.863141      -295.6011
  14   2.0000     -10.854760      -295.3730
  15   2.0000     -10.837241      -294.8963
  16   2.0000      -8.796582      -239.3672
  17   2.0000      -8.642643      -235.1783
  18   2.0000      -6.582947      -179.1311
  19   2.0000      -6.581454      -179.0905
  20   2.0000      -6.579664      -179.0418
  21   2.0000      -6.425098      -174.8358
  22   2.0000      -6.422784      -174.7728
  23   2.0000      -6.421681      -174.7428
  24   2.0000      -1.350877       -36.7592
  25   2.0000      -1.311055       -35.6756
  26   2.0000      -1.234100       -33.5816
  27   2.0000      -1.204438       -32.7744
  28   2.0000      -1.122846       -30.5542
  29   2.0000      -1.063467       -28.9384
  30   2.0000      -1.001568       -27.2540
  31   2.0000      -0.968408       -26.3517
  32   2.0000      -0.928422       -25.2636
  33   2.0000      -0.922324       -25.0977
  34   2.0000      -0.845491       -23.0070
  35   2.0000      -0.802565       -21.8389
  36   2.0000      -0.764178       -20.7943
  37   2.0000      -0.751185       -20.4408
  38   2.0000      -0.731197       -19.8969
  39   2.0000      -0.673307       -18.3216
  40   2.0000      -0.668240       -18.1837
  41   2.0000      -0.664136       -18.0721
  42   2.0000      -0.638236       -17.3673
  43   2.0000      -0.624325       -16.9887
  44   2.0000      -0.619217       -16.8497
  45   2.0000      -0.592555       -16.1242
  46   2.0000      -0.577033       -15.7019
  47   2.0000      -0.572667       -15.5831
  48   2.0000      -0.553484       -15.0611
  49   2.0000      -0.540340       -14.7034
  50   2.0000      -0.531722       -14.4689
  51   2.0000      -0.519284       -14.1304
  52   2.0000      -0.511130       -13.9086
  53   2.0000      -0.497800       -13.5458
  54   2.0000      -0.469945       -12.7878
  55   2.0000      -0.466596       -12.6967
  56   2.0000      -0.465560       -12.6685
  57   2.0000      -0.452368       -12.3096
  58   2.0000      -0.446731       -12.1562
  59   2.0000      -0.439004       -11.9459
  60   2.0000      -0.435899       -11.8614
  61   2.0000      -0.428533       -11.6610
  62   2.0000      -0.411399       -11.1947
  63   2.0000      -0.401587       -10.9277
  64   2.0000      -0.397931       -10.8283
  65   2.0000      -0.318141        -8.6571
  66   2.0000      -0.295919        -8.0524
  67   0.0000       0.009745         0.2652
  68   0.0000       0.010128         0.2756
  69   0.0000       0.015279         0.4158
  70   0.0000       0.021161         0.5758
  71   0.0000       0.025987         0.7072

MULLIKEN ATOMIC CHARGES
-----------------------
   0 C :    0.106565
   1 S :    2.179945
   2 O :   -0.921678
   3 O :   -0.936684
   4 N :   -0.600023
   5 H :    0.143961
   6 H :    0.168940
   7 N :   -0.721410
   8 C :    0.291591
   9 C :    1.007630
  10 S :   -0.352891
  11 C :   -0.829073
  12 C :   -0.705607
  13 C :    1.030465
  14 C :   -0.674725
  15 O :   -0.685038
  16 C :   -0.244744
  17 C :   -1.093895
  18 H :    0.451991
  19 H :    0.562499
  20 H :    0.312861
  21 H :    0.318659
  22 H :    0.312363
  23 H :    0.278372
  24 H :    0.326119
  25 H :    0.273805
Sum of atomic charges:   -0.0000000

LOEWDIN ATOMIC CHARGES
----------------------
   0 C :   -0.829318
   1 S :    0.031594
   2 O :    0.046266
   3 O :    0.058914
   4 N :    0.678709
   5 H :   -0.349398
   6 H :   -0.354814
   7 N :    0.282424
   8 C :   -0.418029
   9 C :   -0.514846
  10 S :    1.307470
  11 C :    0.217342
  12 C :    0.218381
  13 C :   -0.385171
  14 C :    0.163840
  15 O :    0.608880
  16 C :    0.004817
  17 C :    0.584579
  18 H :   -0.167087
  19 H :   -0.175970
  20 H :   -0.208109
  21 H :   -0.148910
  22 H :   -0.148678
  23 H :   -0.167367
  24 H :   -0.168313
  25 H :   -0.167207

  Mayer bond orders larger than 0.100000
B(  0-C ,  1-S ) :   0.8459 B(  0-C ,  2-O ) :   0.1074 B(  0-C ,  7-N ) :   1.4866
B(  0-C ,  8-C ) :   0.1459 B(  0-C ,  9-C ) :  -0.1938 B(  0-C , 10-S ) :   1.0910
B(  1-S ,  2-O ) :   1.2523 B(  1-S ,  3-O ) :   1.2976 B(  1-S ,  4-N ) :   0.8282
B(  3-O ,  4-N ) :   0.1265 B(  4-N ,  5-H ) :   0.9512 B(  4-N ,  6-H ) :   0.9452
B(  7-N ,  8-C ) :   0.2269 B(  7-N ,  9-C ) :  -0.2968 B(  7-N , 10-S ) :   0.1920
B(  7-N , 11-C ) :   0.1955 B(  8-C ,  9-C ) :   0.8067 B(  8-C , 10-S ) :   0.4890
B(  8-C , 11-C ) :   0.8177 B(  9-C , 10-S ) :   0.3783 B(  9-C , 13-C ) :  -0.2330
B(  9-C , 14-C ) :   0.7255 B( 10-S , 14-C ) :  -0.1410 B( 11-C , 12-C ) :   1.4872
B( 11-C , 13-C ) :  -0.2133 B( 11-C , 18-H ) :   0.7678 B( 12-C , 13-C ) :   0.6336
B( 12-C , 14-C ) :   0.1001 B( 12-C , 15-O ) :   0.1175 B( 12-C , 19-H ) :   0.5436
B( 13-C , 14-C ) :   1.1274 B( 13-C , 15-O ) :   0.6292 B( 14-C , 15-O ) :  -0.3161
B( 14-C , 20-H ) :   0.9114 B( 15-O , 16-C ) :   0.9923 B( 16-C , 17-C ) :   0.7305
B( 16-C , 21-H ) :   0.9111 B( 16-C , 22-H ) :   0.9168 B( 17-C , 23-H ) :   0.9903
B( 17-C , 24-H ) :   0.9281 B( 17-C , 25-H ) :   0.9979

MP2 TOTAL ENERGY:    -1479.021072891 Eh
Dispersion correction           -0.020434883
FINAL SINGLE POINT ENERGY     -1479.041507773951

DIPOLE MOMENT
-------------
                                X             Y             Z
Electronic contribution:     -4.95596      -0.39707      23.49973
Nuclear contribution   :      5.25119      -0.50086     -25.94407
                        -----------------------------------------
Total Dipole Moment    :      0.29523      -0.89792      -2.44434
                        -----------------------------------------
Magnitude (a.u.)       :      2.62073
Magnitude (Debye)      :      6.66136

Rotational constants in cm-1:     0.047675     0.006114     0.005621
Rotational constants in MHz :  1429.253508   183.290642   168.522543

                             ****ORCA TERMINATED NORMALLY****
TOTAL RUN TIME: 0 days 0 hours 5 minutes 5 seconds 808 msec
