                         Program Version 5.0.3 -  RELEASE  -
|  1> !PAL8
|  2> !RI-DSD-PBEP86 D3BJ aug-cc-pVTZ aug-cc-pVTZ/C TightSCF
|  3> %maxcore 3000
|  4>
|  5>
|  6> * xyz 0 1
|  7> C  1.096947144  0.4257011316 -0.0258812753
|  8> C -1.3056083158  0.5358497199  0.1290156288
|  9> S -0.1554623992 -0.7724227639  0.1635048372
| 10> S  2.8178467914 -0.0760183402 -0.1744466672
| 11> O  2.9204572349 -1.3282600929  0.5486590112
| 12> O  3.1885790063  0.0576862859 -1.5660790486
| 13> N  3.6731485464  1.0589182071  0.6628263809
| 14> H  3.4657286369  1.050126278  1.6585620327
| 15> N  0.7518150821  1.6606984753 -0.0955287444
| 16> C -0.6287668784  1.7653689328 -0.0099410259
| 17> C -2.6995680068  0.4830055546  0.2293215398
| 18> C -3.3980478195  1.6800070482  0.1853071182
| 19> C -2.7304341874  2.9115164337  0.0462729652
| 20> C -1.3509474713  2.9658147823 -0.0505959849
| 21> H  3.5849915537  1.9865788349  0.2528967715
| 22> H -3.2188159069 -0.4638970444  0.3365698825
| 23> H -4.4810508523  1.6654074557  0.2588451594
| 24> H -3.3086275355  3.8294539673  0.0135314843
| 25> H -0.8187546225  3.9050061343 -0.1612820655
| 26> *
| 27>
| 28>                          ****END OF INPUT****

CARTESIAN COORDINATES (ANGSTROEM)
---------------------------------
  C      1.096947    0.425701   -0.025881
  C     -1.305608    0.535850    0.129016
  S     -0.155462   -0.772423    0.163505
  S      2.817847   -0.076018   -0.174447
  O      2.920457   -1.328260    0.548659
  O      3.188579    0.057686   -1.566079
  N      3.673149    1.058918    0.662826
  H      3.465729    1.050126    1.658562
  N      0.751815    1.660698   -0.095529
  C     -0.628767    1.765369   -0.009941
  C     -2.699568    0.483006    0.229322
  C     -3.398048    1.680007    0.185307
  C     -2.730434    2.911516    0.046273
  C     -1.350947    2.965815   -0.050596
  H      3.584992    1.986579    0.252897
  H     -3.218816   -0.463897    0.336570
  H     -4.481051    1.665407    0.258845
  H     -3.308628    3.829454    0.013531
  H     -0.818755    3.905006   -0.161282

 Total Charge           Charge          ....    0
 Multiplicity           Mult            ....    1
 Number of Electrons    NEL             ....  110
 Basis Dimension        Dim             ....  744

ORBITAL ENERGIES
----------------

  NO   OCC          E(Eh)            E(eV)
   0   2.0000     -91.058033     -2477.8150
   1   2.0000     -90.870541     -2472.7131
   2   2.0000     -20.031491      -545.0846
   3   2.0000     -20.029719      -545.0364
   4   2.0000     -15.150384      -412.2629
   5   2.0000     -15.142952      -412.0607
   6   2.0000     -10.953129      -298.0498
   7   2.0000     -10.900674      -296.6224
   8   2.0000     -10.899197      -296.5822
   9   2.0000     -10.871112      -295.8180
  10   2.0000     -10.864989      -295.6514
  11   2.0000     -10.864760      -295.6451
  12   2.0000     -10.861976      -295.5694
  13   2.0000      -8.800639      -239.4776
  14   2.0000      -8.646284      -235.2774
  15   2.0000      -6.587022      -179.2420
  16   2.0000      -6.585534      -179.2015
  17   2.0000      -6.583704      -179.1517
  18   2.0000      -6.428734      -174.9347
  19   2.0000      -6.426402      -174.8713
  20   2.0000      -6.425291      -174.8411
  21   2.0000      -1.355097       -36.8741
  22   2.0000      -1.238292       -33.6956
  23   2.0000      -1.209250       -32.9054
  24   2.0000      -1.126837       -30.6628
  25   2.0000      -1.068119       -29.0650
  26   2.0000      -1.004018       -27.3207
  27   2.0000      -0.948318       -25.8050
  28   2.0000      -0.928519       -25.2663
  29   2.0000      -0.847643       -23.0655
  30   2.0000      -0.774562       -21.0769
  31   2.0000      -0.764404       -20.8005
  32   2.0000      -0.734572       -19.9887
  33   2.0000      -0.672019       -18.2866
  34   2.0000      -0.671140       -18.2627
  35   2.0000      -0.636796       -17.3281
  36   2.0000      -0.627250       -17.0683
  37   2.0000      -0.620653       -16.8888
  38   2.0000      -0.580061       -15.7843
  39   2.0000      -0.573872       -15.6158
  40   2.0000      -0.568808       -15.4781
  41   2.0000      -0.555928       -15.1276
  42   2.0000      -0.523275       -14.2390
  43   2.0000      -0.492540       -13.4027
  44   2.0000      -0.471520       -12.8307
  45   2.0000      -0.469315       -12.7707
  46   2.0000      -0.460853       -12.5404
  47   2.0000      -0.447764       -12.1843
  48   2.0000      -0.444658       -12.0997
  49   2.0000      -0.433416       -11.7938
  50   2.0000      -0.430067       -11.7027
  51   2.0000      -0.404521       -11.0076
  52   2.0000      -0.402026       -10.9397
  53   2.0000      -0.322216        -8.7679
  54   2.0000      -0.316986        -8.6256
  55   0.0000      -0.000080        -0.0022
  56   0.0000       0.009926         0.2701
  57   0.0000       0.016016         0.4358
  58   0.0000       0.021956         0.5975
  59   0.0000       0.031712         0.8629

MULLIKEN ATOMIC CHARGES
-----------------------
   0 C :    0.264624
   1 C :    1.000787
   2 S :   -0.300844
   3 S :    2.156189
   4 O :   -0.916766
   5 O :   -0.930141
   6 N :   -0.585319
   7 H :    0.142159
   8 N :   -0.590788
   9 C :    0.283309
  10 C :   -1.097720
  11 C :   -0.342240
  12 C :   -0.400223
  13 C :   -0.776755
  14 H :    0.168615
  15 H :    0.424371
  16 H :    0.564816
  17 H :    0.532694
  18 H :    0.403233
Sum of atomic charges:    0.0000000

LOEWDIN ATOMIC CHARGES
----------------------
   0 C :   -0.827297
   1 C :   -0.513107
   2 S :    1.306868
   3 S :    0.034067
   4 O :    0.048121
   5 O :    0.060710
   6 N :    0.678990
   7 H :   -0.347942
   8 N :    0.286490
   9 C :   -0.415653
  10 C :    0.150366
  11 C :    0.191554
  12 C :    0.197702
  13 C :    0.218368
  14 H :   -0.353802
  15 H :   -0.184726
  16 H :   -0.179842
  17 H :   -0.180384
  18 H :   -0.170483

  Mayer bond orders larger than 0.100000
B(  0-C ,  2-S ) :   0.9681 B(  0-C ,  3-S ) :   0.8289 B(  0-C ,  8-N ) :   1.4192
B(  1-C ,  2-S ) :   0.6420 B(  1-C ,  8-N ) :  -0.1295 B(  1-C ,  9-C ) :   0.9007
B(  1-C , 10-C ) :   0.6839 B(  1-C , 11-C ) :  -0.1924 B(  1-C , 12-C ) :  -0.1061
B(  2-S ,  8-N ) :   0.1657 B(  2-S ,  9-C ) :   0.3515 B(  3-S ,  4-O ) :   1.2553
B(  3-S ,  5-O ) :   1.3066 B(  3-S ,  6-N ) :   0.8698 B(  5-O ,  6-N ) :   0.1230
B(  6-N ,  7-H ) :   0.9596 B(  6-N , 14-H ) :   0.9427 B(  8-N ,  9-C ) :   0.5013
B(  9-C , 11-C ) :   0.1413 B(  9-C , 13-C ) :   0.8874 B( 10-C , 11-C ) :   1.4422
B( 10-C , 15-H ) :   0.7972 B( 10-C , 16-H ) :  -0.1060 B( 11-C , 12-C ) :   1.0337
B( 11-C , 16-H ) :   0.5852 B( 12-C , 13-C ) :   1.3068 B( 12-C , 17-H ) :   0.6137
B( 13-C , 17-H ) :  -0.1205 B( 13-C , 18-H ) :   0.8612

MP2 TOTAL ENERGY:    -1325.382201471 Eh
Dispersion correction           -0.016848176
FINAL SINGLE POINT ENERGY     -1325.399049646924

DIPOLE MOMENT
-------------
                                X             Y             Z
Electronic contribution:      5.58392      -6.43968      -1.19040
Nuclear contribution   :     -7.27077       7.79701       2.20839
                        -----------------------------------------
Total Dipole Moment    :     -1.68685       1.35732       1.01800
                        -----------------------------------------
Magnitude (a.u.)       :      2.39251
Magnitude (Debye)      :      6.08127

Rotational constants in cm-1:     0.057507     0.012926     0.011302
Rotational constants in MHz :  1724.003377   387.515424   338.811895

                             ****ORCA TERMINATED NORMALLY****
TOTAL RUN TIME: 0 days 0 hours 2 minutes 55 seconds 358 msec
