                         Program Version 5.0.3 -  RELEASE  -
|  1> !PAL8
|  2> !RI-DSD-PBEP86 D3BJ aug-cc-pVTZ aug-cc-pVTZ/C TightSCF
|  3> %maxcore 5000
|  4>
|  5> * xyz 0 1
|  6> C -1.4368944788  1.1397933548 -0.5987173807
|  7> S -1.6010140714  0.6865394185  1.1150636229
|  8> O -0.2551816664  0.6385117523  1.6436360083
|  9> O -2.6610971914  1.5151824945  1.6511215598
| 10> N -2.1693808551 -0.864577371  1.1558671515
| 11> H -1.5213263725 -1.5524678083  0.7821721435
| 12> H -3.1210560035 -0.9651394396  0.8137869205
| 13> S -2.767423435  1.800112751 -1.4690828399
| 14> C -1.8086915393  1.8706193614 -2.8981331366
| 15> C -0.5286108845  1.4204584698 -2.6713140502
| 16> C -0.295260209  0.9942330977 -1.3412551041
| 17> C -2.3617230969  2.4047964657 -4.1672634904
| 18> S  0.6830845857  1.3729250222 -3.9749123734
| 19> O  0.5357810123  0.1137454594 -4.6988137089
| 20> O  1.9691684072  1.7603089654 -3.411329879
| 21> H  0.6517014494  0.6386535867 -0.9496791258
| 22> C -1.4250638531  2.4266935522 -5.3657468017
| 23> C  0.0405116933  2.6874247448 -5.0159282514
| 24> O -3.5117855365  2.7785053837 -4.2383586323
| 25> H -1.7954009215  3.1890429508 -6.0558691504
| 26> H -1.5102712604  1.4536964018 -5.8670558462
| 27> H  0.1932734158  3.623741697 -4.4717574944
| 28> H  0.6760508114  2.6830096892 -5.9065821411
| 29> *
| 30>
| 31>                          ****END OF INPUT****

CARTESIAN COORDINATES (ANGSTROEM)
---------------------------------
  C     -1.436894    1.139793   -0.598717
  S     -1.601014    0.686539    1.115064
  O     -0.255182    0.638512    1.643636
  O     -2.661097    1.515182    1.651122
  N     -2.169381   -0.864577    1.155867
  H     -1.521326   -1.552468    0.782172
  H     -3.121056   -0.965139    0.813787
  S     -2.767423    1.800113   -1.469083
  C     -1.808692    1.870619   -2.898133
  C     -0.528611    1.420458   -2.671314
  C     -0.295260    0.994233   -1.341255
  C     -2.361723    2.404796   -4.167263
  S      0.683085    1.372925   -3.974912
  O      0.535781    0.113745   -4.698814
  O      1.969168    1.760309   -3.411330
  H      0.651701    0.638654   -0.949679
  C     -1.425064    2.426694   -5.365747
  C      0.040512    2.687425   -5.015928
  O     -3.511786    2.778505   -4.238359
  H     -1.795401    3.189043   -6.055869
  H     -1.510271    1.453696   -5.867056
  H      0.193273    3.623742   -4.471757
  H      0.676051    2.683010   -5.906582

 Total Charge           Charge          ....    0
 Multiplicity           Mult            ....    1
 Number of Electrons    NEL             ....  144
 Basis Dimension        Dim             ....  909

ORBITAL ENERGIES
----------------

  NO   OCC          E(Eh)            E(eV)
   0   2.0000     -91.072031     -2478.1960
   1   2.0000     -91.049675     -2477.5876
   2   2.0000     -90.898036     -2473.4613
   3   2.0000     -20.058945      -545.8316
   4   2.0000     -20.041786      -545.3647
   5   2.0000     -20.041691      -545.3621
   6   2.0000     -20.040382      -545.3265
   7   2.0000     -20.038730      -545.2816
   8   2.0000     -15.161415      -412.5631
   9   2.0000     -10.983823      -298.8850
  10   2.0000     -10.938417      -297.6495
  11   2.0000     -10.933835      -297.5248
  12   2.0000     -10.924694      -297.2760
  13   2.0000     -10.913077      -296.9599
  14   2.0000     -10.907750      -296.8150
  15   2.0000     -10.893843      -296.4365
  16   2.0000      -8.813891      -239.8382
  17   2.0000      -8.796590      -239.3674
  18   2.0000      -8.672834      -235.9998
  19   2.0000      -6.600089      -179.5975
  20   2.0000      -6.599210      -179.5736
  21   2.0000      -6.596993      -179.5133
  22   2.0000      -6.582527      -179.1197
  23   2.0000      -6.580572      -179.0665
  24   2.0000      -6.579621      -179.0406
  25   2.0000      -6.455146      -175.6535
  26   2.0000      -6.452585      -175.5838
  27   2.0000      -6.452320      -175.5765
  28   2.0000      -1.366793       -37.1923
  29   2.0000      -1.350562       -36.7507
  30   2.0000      -1.313190       -35.7337
  31   2.0000      -1.251815       -34.0636
  32   2.0000      -1.240518       -33.7562
  33   2.0000      -1.143974       -31.1291
  34   2.0000      -1.134440       -30.8697
  35   2.0000      -1.048717       -28.5370
  36   2.0000      -0.977853       -26.6087
  37   2.0000      -0.975423       -26.5426
  38   2.0000      -0.911585       -24.8055
  39   2.0000      -0.859172       -23.3793
  40   2.0000      -0.811828       -22.0910
  41   2.0000      -0.779799       -21.2194
  42   2.0000      -0.741082       -20.1659
  43   2.0000      -0.700369       -19.0580
  44   2.0000      -0.686081       -18.6692
  45   2.0000      -0.678684       -18.4679
  46   2.0000      -0.655092       -17.8260
  47   2.0000      -0.641080       -17.4447
  48   2.0000      -0.634593       -17.2681
  49   2.0000      -0.626725       -17.0540
  50   2.0000      -0.606911       -16.5149
  51   2.0000      -0.598823       -16.2948
  52   2.0000      -0.586782       -15.9671
  53   2.0000      -0.581162       -15.8142
  54   2.0000      -0.568078       -15.4582
  55   2.0000      -0.548073       -14.9138
  56   2.0000      -0.542093       -14.7511
  57   2.0000      -0.534815       -14.5531
  58   2.0000      -0.504078       -13.7167
  59   2.0000      -0.494087       -13.4448
  60   2.0000      -0.480035       -13.0624
  61   2.0000      -0.469985       -12.7889
  62   2.0000      -0.464703       -12.6452
  63   2.0000      -0.462591       -12.5877
  64   2.0000      -0.451586       -12.2883
  65   2.0000      -0.445586       -12.1250
  66   2.0000      -0.439774       -11.9669
  67   2.0000      -0.439082       -11.9480
  68   2.0000      -0.414874       -11.2893
  69   2.0000      -0.405604       -11.0371
  70   2.0000      -0.374713       -10.1965
  71   2.0000      -0.360938        -9.8216
  72   0.0000      -0.048894        -1.3305
  73   0.0000       0.005456         0.1485
  74   0.0000       0.010351         0.2817
  75   0.0000       0.026233         0.7138
  76   0.0000       0.029499         0.8027

MULLIKEN ATOMIC CHARGES
-----------------------
   0 C :    0.809972
   1 S :    2.113598
   2 O :   -0.926938
   3 O :   -0.931938
   4 N :   -0.589810
   5 H :    0.148840
   6 H :    0.158246
   7 S :   -0.416320
   8 C :    0.588677
   9 C :    0.342845
  10 C :   -1.382549
  11 C :    0.453126
  12 S :    2.026318
  13 O :   -1.007984
  14 O :   -0.973912
  15 H :    0.374397
  16 C :   -0.316795
  17 C :   -0.718446
  18 O :   -0.911771
  19 H :    0.325067
  20 H :    0.281377
  21 H :    0.296410
  22 H :    0.257592
Sum of atomic charges:    0.0000000

LOEWDIN ATOMIC CHARGES
----------------------
   0 C :   -0.639071
   1 S :    0.043271
   2 O :    0.078436
   3 O :    0.059016
   4 N :    0.680714
   5 H :   -0.345523
   6 H :   -0.349537
   7 S :    1.349689
   8 C :   -0.529695
   9 C :   -0.335081
  10 C :    0.060647
  11 C :   -0.591769
  12 S :    0.260804
  13 O :    0.065809
  14 O :    0.065927
  15 H :   -0.175472
  16 C :    0.253847
  17 C :    0.197769
  18 O :    0.483633
  19 H :   -0.147336
  20 H :   -0.149831
  21 H :   -0.169651
  22 H :   -0.166595

  Mayer bond orders larger than 0.100000
B(  0-C ,  1-S ) :   0.9704 B(  0-C ,  3-O ) :   0.1778 B(  0-C ,  7-S ) :   0.6763
B(  0-C , 10-C ) :   0.7538 B(  1-S ,  2-O ) :   1.2757 B(  1-S ,  3-O ) :   1.2050
B(  1-S ,  4-N ) :   0.9428 B(  4-N ,  5-H ) :   0.9629 B(  4-N ,  6-H ) :   0.9462
B(  7-S ,  8-C ) :   0.7647 B(  7-S ,  9-C ) :   0.2278 B(  7-S , 10-C ) :   0.1456
B(  8-C ,  9-C ) :   1.3332 B(  8-C , 11-C ) :   0.6849 B(  9-C , 10-C ) :   0.9430
B(  9-C , 11-C ) :   0.1550 B(  9-C , 12-S ) :   0.8815 B(  9-C , 14-O ) :   0.1364
B( 10-C , 15-H ) :   0.8578 B( 11-C , 16-C ) :   0.8749 B( 11-C , 17-C ) :   0.1101
B( 11-C , 18-O ) :   1.0134 B( 12-S , 13-O ) :   1.1386 B( 12-S , 14-O ) :   1.0189
B( 12-S , 17-C ) :   0.9653 B( 13-O , 17-C ) :   0.1634 B( 14-O , 17-C ) :   0.1249
B( 16-C , 17-C ) :   1.0303 B( 16-C , 19-H ) :   0.8567 B( 16-C , 20-H ) :   0.9479
B( 17-C , 21-H ) :   0.9069 B( 17-C , 22-H ) :   0.9205

MP2 TOTAL ENERGY:    -1894.603806913 Eh
Dispersion correction           -0.022397565
FINAL SINGLE POINT ENERGY     -1894.626204477846

DIPOLE MOMENT
-------------
                                X             Y             Z
Electronic contribution:     -1.95642       0.18309       5.89731
Nuclear contribution   :      1.27443      -0.48683      -7.39490
                        -----------------------------------------
Total Dipole Moment    :     -0.68199      -0.30374      -1.49759
                        -----------------------------------------
Magnitude (a.u.)       :      1.67336
Magnitude (Debye)      :      4.25335

Rotational constants in cm-1:     0.024544     0.008727     0.007014
Rotational constants in MHz :   735.816739   261.627980   210.264125

                             ****ORCA TERMINATED NORMALLY****
TOTAL RUN TIME: 0 days 0 hours 4 minutes 59 seconds 48 msec
