                         Program Version 5.0.3 -  RELEASE  -
|  1> !PAL8
|  2> !RI-DSD-PBEP86 D3BJ aug-cc-pVTZ aug-cc-pVTZ/C TightSCF
|  3> %maxcore 5000
|  4>
|  5> * xyz 0 1
|  6> C -1.474706356  0.5740371557 -0.9106813569
|  7> C -2.5684890466  0.2702229075 -1.7170661697
|  8> H -3.4709629118 -0.1402370299 -1.2736370872
|  9> C -2.4767417152  0.470445556 -3.0910931616
| 10> H -3.3100513895  0.2356345923 -3.7446561323
| 11> C -1.2903569963  0.9671557568 -3.627278653
| 12> Cl -1.1740923155  1.2161954665 -5.3438246136
| 13> C -0.1913040762  1.2589799387 -2.8218940028
| 14> H  0.7253965582  1.6279672977 -3.2693244747
| 15> C -0.2848450406  1.0581383161 -1.4480777427
| 16> H  0.5636690648  1.2518140546 -0.7984014788
| 17> S -1.6084289223  0.3580058135  0.8573819869
| 18> O -2.6608808562 -0.6131680287  1.0923773306
| 19> O -0.2602576764  0.2151337766  1.3751434334
| 20> N -2.1767269128  1.7915445807  1.4828229511
| 21> H -3.1195768179  2.0145625893  1.1750545342
| 22> H -1.5270095897  2.5640952567  1.3625846372
| 23> *
| 24>
| 25>
| 26>
| 27>                          ****END OF INPUT****

CARTESIAN COORDINATES (ANGSTROEM)
---------------------------------
  C     -1.474706    0.574037   -0.910681
  C     -2.568489    0.270223   -1.717066
  H     -3.470963   -0.140237   -1.273637
  C     -2.476742    0.470446   -3.091093
  H     -3.310051    0.235635   -3.744656
  C     -1.290357    0.967156   -3.627279
  Cl    -1.174092    1.216195   -5.343825
  C     -0.191304    1.258980   -2.821894
  H      0.725397    1.627967   -3.269324
  C     -0.284845    1.058138   -1.448078
  H      0.563669    1.251814   -0.798401
  S     -1.608429    0.358006    0.857382
  O     -2.660881   -0.613168    1.092377
  O     -0.260258    0.215134    1.375143
  N     -2.176727    1.791545    1.482823
  H     -3.119577    2.014563    1.175055
  H     -1.527010    2.564095    1.362585

 Total Charge           Charge          ....    0
 Multiplicity           Mult            ....    1
 Number of Electrons    NEL             ....   98
 Basis Dimension        Dim             ....  652

ORBITAL ENERGIES
----------------

  NO   OCC          E(Eh)            E(eV)
   0   2.0000    -103.632787     -2819.9915
   1   2.0000     -91.048886     -2477.5662
   2   2.0000     -20.023482      -544.8667
   3   2.0000     -20.023399      -544.8644
   4   2.0000     -15.144943      -412.1149
   5   2.0000     -10.934785      -297.5506
   6   2.0000     -10.894063      -296.4425
   7   2.0000     -10.883583      -296.1574
   8   2.0000     -10.883523      -296.1557
   9   2.0000     -10.877846      -296.0012
  10   2.0000     -10.877832      -296.0009
  11   2.0000     -10.180723      -277.0316
  12   2.0000      -8.791705      -239.2345
  13   2.0000      -7.753816      -210.9921
  14   2.0000      -7.749359      -210.8708
  15   2.0000      -7.749222      -210.8671
  16   2.0000      -6.577853      -178.9925
  17   2.0000      -6.576574      -178.9577
  18   2.0000      -6.574964      -178.9139
  19   2.0000      -1.346202       -36.6320
  20   2.0000      -1.231808       -33.5192
  21   2.0000      -1.119006       -30.4497
  22   2.0000      -1.112615       -30.2758
  23   2.0000      -1.051382       -28.6095
  24   2.0000      -0.966001       -26.2862
  25   2.0000      -0.946274       -25.7494
  26   2.0000      -0.823177       -22.3998
  27   2.0000      -0.799446       -21.7540
  28   2.0000      -0.752121       -20.4662
  29   2.0000      -0.695539       -18.9266
  30   2.0000      -0.667189       -18.1551
  31   2.0000      -0.638780       -17.3821
  32   2.0000      -0.623180       -16.9576
  33   2.0000      -0.608963       -16.5707
  34   2.0000      -0.591562       -16.0972
  35   2.0000      -0.572613       -15.5816
  36   2.0000      -0.569399       -15.4941
  37   2.0000      -0.525578       -14.3017
  38   2.0000      -0.509659       -13.8685
  39   2.0000      -0.491084       -13.3631
  40   2.0000      -0.464433       -12.6379
  41   2.0000      -0.461004       -12.5445
  42   2.0000      -0.448267       -12.1980
  43   2.0000      -0.429948       -11.6995
  44   2.0000      -0.428226       -11.6526
  45   2.0000      -0.424244       -11.5443
  46   2.0000      -0.414519       -11.2796
  47   2.0000      -0.354106        -9.6357
  48   2.0000      -0.337397        -9.1810
  49   0.0000       0.006069         0.1651
  50   0.0000       0.011590         0.3154
  51   0.0000       0.020930         0.5695
  52   0.0000       0.022193         0.6039
  53   0.0000       0.024666         0.6712

MULLIKEN ATOMIC CHARGES
-----------------------
   0 C :    0.877447
   1 C :   -0.707343
   2 H :    0.522771
   3 C :   -0.759258
   4 H :    0.506193
   5 C :    0.642442
   6 Cl:   -0.462397
   7 C :   -0.801498
   8 H :    0.535663
   9 C :   -0.690411
  10 H :    0.501428
  11 S :    1.983531
  12 O :   -0.936588
  13 O :   -0.937410
  14 N :   -0.571914
  15 H :    0.153349
  16 H :    0.143995
Sum of atomic charges:    0.0000000

LOEWDIN ATOMIC CHARGES
----------------------
   0 C :   -0.254292
   1 C :    0.154809
   2 H :   -0.190994
   3 C :    0.118231
   4 H :   -0.193597
   5 C :   -0.771740
   6 Cl:    0.997465
   7 C :    0.118194
   8 H :   -0.193586
   9 C :    0.154781
  10 H :   -0.191026
  11 S :    0.121493
  12 O :    0.074112
  13 O :    0.074105
  14 N :    0.686789
  15 H :   -0.352352
  16 H :   -0.352392

  Mayer bond orders larger than 0.100000
B(  0-C ,  1-C ) :   0.7715 B(  0-C ,  3-C ) :  -0.1992 B(  0-C ,  7-C ) :  -0.2256
B(  0-C ,  9-C ) :   0.7648 B(  0-C , 11-S ) :   0.9172 B(  0-C , 12-O ) :   0.1654
B(  0-C , 13-O ) :   0.1877 B(  1-C ,  2-H ) :   0.5863 B(  1-C ,  3-C ) :   1.2883
B(  1-C ,  9-C ) :   0.1984 B(  3-C ,  4-H ) :   0.7292 B(  3-C ,  5-C ) :   1.2558
B(  3-C ,  7-C ) :   0.1019 B(  5-C ,  6-Cl) :   0.4861 B(  5-C ,  7-C ) :   1.2901
B(  6-Cl,  7-C ) :   0.1224 B(  7-C ,  8-H ) :   0.6777 B(  7-C ,  9-C ) :   1.3174
B(  9-C , 10-H ) :   0.6412 B( 11-S , 12-O ) :   1.2615 B( 11-S , 13-O ) :   1.2528
B( 11-S , 14-N ) :   0.9793 B( 14-N , 15-H ) :   0.9479 B( 14-N , 16-H ) :   0.9603

MP2 TOTAL ENERGY:    -1294.644299176 Eh
Dispersion correction           -0.013933404
FINAL SINGLE POINT ENERGY     -1294.658232580127

DIPOLE MOMENT
-------------
                                X             Y             Z
Electronic contribution:      1.27716      -0.88661      -8.24407
Nuclear contribution   :     -1.66818       2.39745       7.13916
                        -----------------------------------------
Total Dipole Moment    :     -0.39102       1.51085      -1.10491
                        -----------------------------------------
Magnitude (a.u.)       :      1.91217
Magnitude (Debye)      :      4.86034

Rotational constants in cm-1:     0.085976     0.013233     0.012355
Rotational constants in MHz :  2577.496682   396.704126   370.390391

                             ****ORCA TERMINATED NORMALLY****
TOTAL RUN TIME: 0 days 0 hours 2 minutes 7 seconds 621 msec
