                         Program Version 5.0.3 -  RELEASE  -
|  1> !PAL8
|  2> !RI-DSD-PBEP86 D3BJ aug-cc-pVTZ aug-cc-pVTZ/C TightSCF
|  3> %maxcore 3000
|  4>
|  5>
|  6> * xyz 0 1
|  7> C -1.3014213642  0.8116674434 -0.7021713074
|  8> C -2.3952560897  0.5411520985 -1.545688066
|  9> Cl -4.0197450019  0.6984388852 -0.9736035404
| 10> C -2.2103750986  0.1518432769 -2.8600187392
| 11> H -3.077705944 -0.0303053795 -3.4871114587
| 12> C -0.9146049641 -0.0016707401 -3.3881189944
| 13> C  0.1624830597  0.2515420625 -2.5267467677
| 14> S  1.7926095295  0.0187095438 -3.1368102334
| 15> C -0.0226163746  0.6650941685 -1.2149432678
| 16> H  0.8531376315  0.8798781712 -0.6103720821
| 17> S -1.5655348576  1.3468541844  0.9918222346
| 18> O -2.1794140974  2.659064882  0.9379490544
| 19> O -2.1591368206  0.2345187046  1.7072439732
| 20> N -0.0714430523  1.5675032592  1.6460763504
| 21> H  0.449263416  2.3813953656  1.3391072128
| 22> H  0.4622634546  0.7336362681  1.8640040927
| 23> N -0.7284735216 -0.3521771379 -4.6931700262
| 24> C  0.5533201637 -0.4522394082 -5.3696004598
| 25> N  1.5096917917  0.4850652234 -4.7504713581
| 26> O  2.6889944208  0.9922303665 -2.5353295758
| 27> O  2.1413171283 -1.3975588852 -3.0937227954
| 28> H -1.5480690102 -0.4787200849 -5.2756389877
| 29> C  2.7882034933  0.6055835715 -5.4754149424
| 30> C  0.370920118 -0.104366816 -6.8487576608
| 31> S -0.9715164525 -1.0207511015 -7.6756968964
| 32> C -0.5220745067 -2.7500313071 -7.3602602933
| 33> C  0.7207780927 -3.2234207582 -8.0826289664
| 34> H  0.9585738377 -1.4753484562 -5.2822308797
| 35> H  2.6347507719  1.2321425465 -6.3548149671
| 36> H  3.1895465513 -0.3723801632 -5.7740086184
| 37> H  3.5039226804  1.1072433578 -4.822705044
| 38> H  1.3006254633 -0.2654871981 -7.392617045
| 39> H  0.0831371832  0.9488331047 -6.9381892817
| 40> H -1.3626239342 -3.3458608114 -7.7255494669
| 41> H -0.3992524725 -2.9555953801 -6.2931029742
| 42> F  0.6434174536 -3.0511462513 -9.4060657002
| 43> F  0.9216352058 -4.5301405672 -7.8528461061
| 44> F  1.8217271158 -2.5715960378 -7.6554734151
| 45> *
| 46>
| 47>                          ****END OF INPUT****

CARTESIAN COORDINATES (ANGSTROEM)
---------------------------------
  C     -1.301421    0.811667   -0.702171
  C     -2.395256    0.541152   -1.545688
  Cl    -4.019745    0.698439   -0.973604
  C     -2.210375    0.151843   -2.860019
  H     -3.077706   -0.030305   -3.487111
  C     -0.914605   -0.001671   -3.388119
  C      0.162483    0.251542   -2.526747
  S      1.792610    0.018710   -3.136810
  C     -0.022616    0.665094   -1.214943
  H      0.853138    0.879878   -0.610372
  S     -1.565535    1.346854    0.991822
  O     -2.179414    2.659065    0.937949
  O     -2.159137    0.234519    1.707244
  N     -0.071443    1.567503    1.646076
  H      0.449263    2.381395    1.339107
  H      0.462263    0.733636    1.864004
  N     -0.728474   -0.352177   -4.693170
  C      0.553320   -0.452239   -5.369600
  N      1.509692    0.485065   -4.750471
  O      2.688994    0.992230   -2.535330
  O      2.141317   -1.397559   -3.093723
  H     -1.548069   -0.478720   -5.275639
  C      2.788203    0.605584   -5.475415
  C      0.370920   -0.104367   -6.848758
  S     -0.971516   -1.020751   -7.675697
  C     -0.522075   -2.750031   -7.360260
  C      0.720778   -3.223421   -8.082629
  H      0.958574   -1.475348   -5.282231
  H      2.634751    1.232143   -6.354815
  H      3.189547   -0.372380   -5.774009
  H      3.503923    1.107243   -4.822705
  H      1.300625   -0.265487   -7.392617
  H      0.083137    0.948833   -6.938189
  H     -1.362624   -3.345861   -7.725549
  H     -0.399252   -2.955595   -6.293103
  F      0.643417   -3.051146   -9.406066
  F      0.921635   -4.530141   -7.852846
  F      1.821727   -2.571596   -7.655473

 Total Charge           Charge          ....    0
 Multiplicity           Mult            ....    1
 Number of Electrons    NEL             ....  224
 Basis Dimension        Dim             .... 1465

ORBITAL ENERGIES
----------------

  NO   OCC          E(Eh)            E(eV)
   0   2.0000    -103.632551     -2819.9851
   1   2.0000     -91.055789     -2477.7540
   2   2.0000     -91.050485     -2477.6097
   3   2.0000     -90.854010     -2472.2633
   4   2.0000     -25.757245      -700.8903
   5   2.0000     -25.754272      -700.8094
   6   2.0000     -25.754179      -700.8068
   7   2.0000     -20.038406      -545.2727
   8   2.0000     -20.033538      -545.1403
   9   2.0000     -20.018105      -544.7203
  10   2.0000     -20.018088      -544.7199
  11   2.0000     -15.164602      -412.6498
  12   2.0000     -15.158355      -412.4798
  13   2.0000     -15.144823      -412.1116
  14   2.0000     -11.125520      -302.7408
  15   2.0000     -10.959932      -298.2349
  16   2.0000     -10.951893      -298.0162
  17   2.0000     -10.949316      -297.9460
  18   2.0000     -10.922123      -297.2061
  19   2.0000     -10.909645      -296.8665
  20   2.0000     -10.903485      -296.6989
  21   2.0000     -10.897500      -296.5361
  22   2.0000     -10.896607      -296.5118
  23   2.0000     -10.890851      -296.3551
  24   2.0000     -10.880293      -296.0678
  25   2.0000     -10.180398      -277.0227
  26   2.0000      -8.800463      -239.4728
  27   2.0000      -8.792299      -239.2506
  28   2.0000      -8.629838      -234.8298
  29   2.0000      -7.753680      -210.9884
  30   2.0000      -7.748926      -210.8590
  31   2.0000      -7.748627      -210.8509
  32   2.0000      -6.586731      -179.2341
  33   2.0000      -6.584638      -179.1771
  34   2.0000      -6.583593      -179.1487
  35   2.0000      -6.578971      -179.0229
  36   2.0000      -6.577076      -178.9713
  37   2.0000      -6.575426      -178.9264
  38   2.0000      -6.412908      -174.5041
  39   2.0000      -6.410567      -174.4404
  40   2.0000      -6.407776      -174.3645
  41   2.0000      -1.604939       -43.6726
  42   2.0000      -1.512274       -41.1511
  43   2.0000      -1.510736       -41.1092
  44   2.0000      -1.357348       -36.9353
  45   2.0000      -1.343587       -36.5609
  46   2.0000      -1.239012       -33.7152
  47   2.0000      -1.226285       -33.3689
  48   2.0000      -1.220126       -33.2013
  49   2.0000      -1.150829       -31.3157
  50   2.0000      -1.121273       -30.5114
  51   2.0000      -1.114096       -30.3161
  52   2.0000      -1.061612       -28.8879
  53   2.0000      -1.044539       -28.4234
  54   2.0000      -0.997611       -27.1464
  55   2.0000      -0.967999       -26.3406
  56   2.0000      -0.959732       -26.1156
  57   2.0000      -0.907537       -24.6953
  58   2.0000      -0.889903       -24.2155
  59   2.0000      -0.855750       -23.2862
  60   2.0000      -0.834242       -22.7009
  61   2.0000      -0.813663       -22.1409
  62   2.0000      -0.798239       -21.7212
  63   2.0000      -0.783752       -21.3270
  64   2.0000      -0.769205       -20.9311
  65   2.0000      -0.764965       -20.8158
  66   2.0000      -0.726206       -19.7611
  67   2.0000      -0.717496       -19.5241
  68   2.0000      -0.712936       -19.4000
  69   2.0000      -0.696585       -18.9550
  70   2.0000      -0.679200       -18.4820
  71   2.0000      -0.675196       -18.3730
  72   2.0000      -0.662797       -18.0356
  73   2.0000      -0.649130       -17.6637
  74   2.0000      -0.648359       -17.6427
  75   2.0000      -0.636172       -17.3111
  76   2.0000      -0.622480       -16.9385
  77   2.0000      -0.616822       -16.7846
  78   2.0000      -0.613181       -16.6855
  79   2.0000      -0.611360       -16.6360
  80   2.0000      -0.602511       -16.3952
  81   2.0000      -0.594762       -16.1843
  82   2.0000      -0.589728       -16.0473
  83   2.0000      -0.587648       -15.9907
  84   2.0000      -0.580444       -15.7947
  85   2.0000      -0.576728       -15.6936
  86   2.0000      -0.571565       -15.5531
  87   2.0000      -0.566533       -15.4161
  88   2.0000      -0.556075       -15.1316
  89   2.0000      -0.547458       -14.8971
  90   2.0000      -0.539766       -14.6878
  91   2.0000      -0.537325       -14.6214
  92   2.0000      -0.523283       -14.2393
  93   2.0000      -0.514107       -13.9896
  94   2.0000      -0.503661       -13.7053
  95   2.0000      -0.482269       -13.1232
  96   2.0000      -0.472373       -12.8539
  97   2.0000      -0.463500       -12.6125
  98   2.0000      -0.458902       -12.4874
  99   2.0000      -0.451221       -12.2784
 100   2.0000      -0.445157       -12.1133
 101   2.0000      -0.443061       -12.0563
 102   2.0000      -0.435585       -11.8529
 103   2.0000      -0.431550       -11.7431
 104   2.0000      -0.427705       -11.6384
 105   2.0000      -0.423694       -11.5293
 106   2.0000      -0.414290       -11.2734
 107   2.0000      -0.406620       -11.0647
 108   2.0000      -0.389712       -10.6046
 109   2.0000      -0.360602        -9.8125
 110   2.0000      -0.349466        -9.5094
 111   2.0000      -0.312339        -8.4992
 112   0.0000       0.005105         0.1389
 113   0.0000       0.006088         0.1657
 114   0.0000       0.012238         0.3330
 115   0.0000       0.016709         0.4547
 116   0.0000       0.019178         0.5218

MULLIKEN ATOMIC CHARGES
-----------------------
   0 C :   -0.244198
   1 C :    0.831677
   2 Cl:   -0.522470
   3 C :   -0.394398
   4 H :    0.361907
   5 C :    0.333274
   6 C :    0.714361
   7 S :    2.222576
   8 C :   -1.086939
   9 H :    0.188048
  10 S :    2.153593
  11 O :   -0.965790
  12 O :   -0.966388
  13 N :   -0.712692
  14 H :    0.124427
  15 H :    0.131176
  16 N :   -0.484187
  17 C :    1.097379
  18 N :   -0.654428
  19 O :   -1.037479
  20 O :   -1.135688
  21 H :    0.067500
  22 C :   -1.163017
  23 C :   -0.330045
  24 S :   -0.582968
  25 C :   -0.502415
  26 C :    1.222294
  27 H :    0.356758
  28 H :    0.355510
  29 H :    0.385479
  30 H :    0.310185
  31 H :    0.320268
  32 H :    0.286664
  33 H :    0.295337
  34 H :    0.235135
  35 F :   -0.396317
  36 F :   -0.386447
  37 F :   -0.427679
Sum of atomic charges:    0.0000000

LOEWDIN ATOMIC CHARGES
----------------------
   0 C :   -0.309308
   1 C :   -0.795425
   2 Cl:    1.066858
   3 C :    0.148090
   4 H :   -0.190564
   5 C :   -0.245196
   6 C :   -0.211641
   7 S :    0.183704
   8 C :    0.114265
   9 H :   -0.208832
  10 S :    0.066824
  11 O :    0.057650
  12 O :    0.057707
  13 N :    0.677838
  14 H :   -0.338061
  15 H :   -0.338051
  16 N :    0.571429
  17 C :   -0.344876
  18 N :    0.167165
  19 O :    0.104423
  20 O :    0.093429
  21 H :   -0.345562
  22 C :    0.423360
  23 C :   -0.027227
  24 S :    1.291456
  25 C :   -0.081971
  26 C :   -1.588120
  27 H :   -0.177533
  28 H :   -0.169248
  29 H :   -0.147887
  30 H :   -0.194728
  31 H :   -0.251540
  32 H :   -0.193145
  33 H :   -0.221080
  34 H :   -0.221183
  35 F :    0.521605
  36 F :    0.524775
  37 F :    0.530604

  Mayer bond orders larger than 0.100000
B(  0-C ,  1-C ) :   1.1545 B(  0-C ,  2-Cl) :   0.8642 B(  0-C ,  3-C ) :  -0.1507
B(  0-C ,  5-C ) :  -0.1274 B(  0-C ,  6-C ) :   0.7084 B(  0-C ,  8-C ) :   0.9893
B(  0-C , 10-S ) :   0.8036 B(  0-C , 13-N ) :   0.5307 B(  0-C , 17-C ) :  -0.1003
B(  0-C , 18-N ) :   0.1215 B(  0-C , 19-O ) :  -0.1215 B(  1-C ,  2-Cl) :  -0.5982
B(  1-C ,  3-C ) :   1.2129 B(  1-C ,  4-H ) :  -0.1058 B(  1-C ,  5-C ) :   0.2324
B(  1-C ,  6-C ) :   0.1173 B(  1-C , 11-O ) :   0.1720 B(  1-C , 13-N ) :  -0.1343
B(  2-Cl,  3-C ) :   0.1401 B(  3-C ,  4-H ) :   0.7839 B(  3-C ,  7-S ) :  -0.1332
B(  3-C ,  8-C ) :  -0.1902 B(  3-C , 16-N ) :  -0.1204 B(  3-C , 17-C ) :   0.1492
B(  3-C , 18-N ) :  -0.1717 B(  4-H ,  6-C ) :   0.1297 B(  5-C ,  6-C ) :   0.7494
B(  5-C ,  7-S ) :   0.4173 B(  5-C ,  8-C ) :  -0.6710 B(  5-C , 16-N ) :   0.7917
B(  5-C , 17-C ) :  -0.3553 B(  5-C , 18-N ) :  -0.1524 B(  6-C ,  7-S ) :   0.4238
B(  6-C ,  8-C ) :   0.6139 B(  6-C ,  9-H ) :  -0.1772 B(  6-C , 13-N ) :  -0.1202
B(  6-C , 16-N ) :  -0.4880 B(  6-C , 17-C ) :   0.2344 B(  6-C , 18-N ) :   0.3267
B(  6-C , 19-O ) :   0.4040 B(  7-S , 17-C ) :  -0.1869 B(  7-S , 18-N ) :   1.2497
B(  7-S , 19-O ) :   0.7865 B(  7-S , 20-O ) :   1.0126 B(  8-C ,  9-H ) :   1.1741
B(  8-C , 11-O ) :  -0.1414 B(  8-C , 12-O ) :  -0.1198 B(  8-C , 17-C ) :   0.1114
B(  8-C , 18-N ) :   0.1210 B(  9-H , 19-O ) :   0.1060 B( 10-S , 11-O ) :   1.3781
B( 10-S , 12-O ) :   1.4028 B( 10-S , 13-N ) :   0.6797 B( 13-N , 14-H ) :   1.0025
B( 13-N , 15-H ) :   0.9966 B( 16-N , 17-C ) :   0.4745 B( 16-N , 21-H ) :   1.1884
B( 17-C , 23-C ) :   0.6737 B( 17-C , 24-S ) :   0.1914 B( 17-C , 27-H ) :   0.9519
B( 18-N , 20-O ) :   0.1503 B( 18-N , 22-C ) :   0.8553 B( 18-N , 27-H ) :  -0.1737
B( 20-O , 22-C ) :   0.1441 B( 22-C , 28-H ) :   0.9178 B( 22-C , 29-H ) :   0.8775
B( 22-C , 30-H ) :   0.9777 B( 23-C , 24-S ) :   0.7499 B( 23-C , 31-H ) :   0.9082
B( 23-C , 32-H ) :   0.9922 B( 24-S , 25-C ) :   0.9045 B( 24-S , 32-H ) :  -0.1853
B( 25-C , 26-C ) :   0.9960 B( 25-C , 33-H ) :   0.8786 B( 25-C , 34-H ) :   0.9221
B( 25-C , 35-F ) :   0.1159 B( 25-C , 36-F ) :   0.1179 B( 26-C , 35-F ) :   0.7128
B( 26-C , 36-F ) :   0.6969 B( 26-C , 37-F ) :   0.8353

MP2 TOTAL ENERGY:    -2843.812421679 Eh
Dispersion correction           -0.034974936
FINAL SINGLE POINT ENERGY     -2843.847396615258

DIPOLE MOMENT
-------------
                                X             Y             Z
Electronic contribution:    -10.45198      -9.71356      -2.93677
Nuclear contribution   :     10.92575       9.48146       0.34065
                        -----------------------------------------
Total Dipole Moment    :      0.47377      -0.23210      -2.59612
                        -----------------------------------------
Magnitude (a.u.)       :      2.64918
Magnitude (Debye)      :      6.73368

Rotational constants in cm-1:     0.011325     0.002558     0.002277
Rotational constants in MHz :   339.523177    76.692233    68.249913

                             ****ORCA TERMINATED NORMALLY****
TOTAL RUN TIME: 0 days 0 hours 16 minutes 21 seconds 384 msec
