                         Program Version 5.0.3 -  RELEASE  -
|  1> !PAL8
|  2> !RI-DSD-PBEP86 D3BJ aug-cc-pVTZ aug-cc-pVTZ/C TightSCF
|  3> %maxcore 3000
|  4>
|  5>
|  6> * xyz 0 1
|  7> C -2.0455768364  1.411306869 -1.3366871227
|  8> C -2.6027016649  0.1621955127 -1.0499035534
|  9> Cl -4.0732446315 -0.0048733728 -0.1357859598
| 10> C -1.9848137135 -0.9941122146 -1.5132763461
| 11> H -2.4249727063 -1.9593380075 -1.285197015
| 12> C -0.8119448795 -0.9039224784 -2.2578736181
| 13> C -0.2521938184  0.3386938309 -2.5574977907
| 14> C -0.8750670509  1.4947203594 -2.0862340363
| 15> S -2.7432775383  2.9590665784 -0.7335301481
| 16> O -2.8960771813  2.8421897563  0.7010781634
| 17> O -1.9621892431  4.0113195796 -1.3559678741
| 18> N -4.2681362144  3.097536254 -1.363306221
| 19> H -4.9179638557  2.3970674515 -1.0161473142
| 20> H -4.2765678105  3.2000564832 -2.374324688
| 21> H -0.4567803347  2.4767126326 -2.2899021184
| 22> C  1.0660274522  0.41974797 -3.326139152
| 23> N  1.1800085837  1.6420693555 -4.0928314303
| 24> C  2.2704733544  0.5396852446 -2.3998291024
| 25> C  2.2885674023  2.4162233084 -3.8023244088
| 26> C  2.9790664891  1.6956748706 -2.6924269029
| 27> O  2.5936564365  3.4570654181 -4.3399683098
| 28> C  2.6953707884 -0.3325207078 -1.4106386707
| 29> C  3.860032896 -0.0007300521 -0.714012142
| 30> C  4.5714187691  1.1688829081 -1.0059935676
| 31> C  4.1368424773  2.0366759888 -2.0079243987
| 32> O  1.261419033 -0.7442549048 -4.1043509465
| 33> H -0.3263215959 -1.8089893187 -2.6095033813
| 34> H  0.5016409965  1.9407885939 -4.7818195325
| 35> H  2.1460490209 -1.2417556548 -1.1827029277
| 36> H  4.2196255889 -0.6605736284  0.069883896
| 37> H  5.4706611961  1.4005091605 -0.4435543431
| 38> H  4.6733009319  2.9481940191 -2.253573425
| 39> H  0.5666746587 -0.7924358054 -4.7800966118
| 40> *
| 41>
| 42>                          ****END OF INPUT****

CARTESIAN COORDINATES (ANGSTROEM)
---------------------------------
  C     -2.045577    1.411307   -1.336687
  C     -2.602702    0.162196   -1.049904
  Cl    -4.073245   -0.004873   -0.135786
  C     -1.984814   -0.994112   -1.513276
  H     -2.424973   -1.959338   -1.285197
  C     -0.811945   -0.903922   -2.257874
  C     -0.252194    0.338694   -2.557498
  C     -0.875067    1.494720   -2.086234
  S     -2.743278    2.959067   -0.733530
  O     -2.896077    2.842190    0.701078
  O     -1.962189    4.011320   -1.355968
  N     -4.268136    3.097536   -1.363306
  H     -4.917964    2.397067   -1.016147
  H     -4.276568    3.200056   -2.374325
  H     -0.456780    2.476713   -2.289902
  C      1.066027    0.419748   -3.326139
  N      1.180009    1.642069   -4.092831
  C      2.270473    0.539685   -2.399829
  C      2.288567    2.416223   -3.802324
  C      2.979066    1.695675   -2.692427
  O      2.593656    3.457065   -4.339968
  C      2.695371   -0.332521   -1.410639
  C      3.860033   -0.000730   -0.714012
  C      4.571419    1.168883   -1.005994
  C      4.136842    2.036676   -2.007924
  O      1.261419   -0.744255   -4.104351
  H     -0.326322   -1.808989   -2.609503
  H      0.501641    1.940789   -4.781820
  H      2.146049   -1.241756   -1.182703
  H      4.219626   -0.660574    0.069884
  H      5.470661    1.400509   -0.443554
  H      4.673301    2.948194   -2.253573
  H      0.566675   -0.792436   -4.780097

 Total Charge           Charge          ....    0
 Multiplicity           Mult            ....    1
 Number of Electrons    NEL             ....  174
 Basis Dimension        Dim             .... 1273

ORBITAL ENERGIES
----------------

  NO   OCC          E(Eh)            E(eV)
   0   2.0000    -103.643645     -2820.2870
   1   2.0000     -91.052274     -2477.6583
   2   2.0000     -20.062015      -545.9152
   3   2.0000     -20.024724      -544.9004
   4   2.0000     -20.022915      -544.8512
   5   2.0000     -20.002903      -544.3067
   6   2.0000     -15.145288      -412.1242
   7   2.0000     -15.134624      -411.8340
   8   2.0000     -10.973169      -298.5951
   9   2.0000     -10.960608      -298.2533
  10   2.0000     -10.946312      -297.8643
  11   2.0000     -10.906257      -296.7743
  12   2.0000     -10.886461      -296.2357
  13   2.0000     -10.884430      -296.1804
  14   2.0000     -10.883952      -296.1674
  15   2.0000     -10.882838      -296.1371
  16   2.0000     -10.869699      -295.7796
  17   2.0000     -10.863013      -295.5976
  18   2.0000     -10.861697      -295.5618
  19   2.0000     -10.861604      -295.5593
  20   2.0000     -10.858848      -295.4843
  21   2.0000     -10.857387      -295.4445
  22   2.0000     -10.191484      -277.3244
  23   2.0000      -8.794704      -239.3161
  24   2.0000      -7.764662      -211.2872
  25   2.0000      -7.760097      -211.1630
  26   2.0000      -7.759875      -211.1569
  27   2.0000      -6.580912      -179.0757
  28   2.0000      -6.579725      -179.0434
  29   2.0000      -6.577890      -178.9935
  30   2.0000      -1.348551       -36.6959
  31   2.0000      -1.297910       -35.3179
  32   2.0000      -1.270562       -34.5737
  33   2.0000      -1.232741       -33.5446
  34   2.0000      -1.156803       -31.4782
  35   2.0000      -1.126571       -30.6555
  36   2.0000      -1.115923       -30.3658
  37   2.0000      -1.069716       -29.1085
  38   2.0000      -1.058031       -28.7905
  39   2.0000      -0.981432       -26.7061
  40   2.0000      -0.967466       -26.3261
  41   2.0000      -0.956495       -26.0275
  42   2.0000      -0.943309       -25.6687
  43   2.0000      -0.864343       -23.5200
  44   2.0000      -0.838896       -22.8275
  45   2.0000      -0.812345       -22.1050
  46   2.0000      -0.788737       -21.4626
  47   2.0000      -0.768711       -20.9177
  48   2.0000      -0.745336       -20.2816
  49   2.0000      -0.730479       -19.8773
  50   2.0000      -0.698068       -18.9954
  51   2.0000      -0.681810       -18.5530
  52   2.0000      -0.670308       -18.2400
  53   2.0000      -0.651870       -17.7383
  54   2.0000      -0.638444       -17.3729
  55   2.0000      -0.629805       -17.1379
  56   2.0000      -0.624462       -16.9925
  57   2.0000      -0.617000       -16.7894
  58   2.0000      -0.615187       -16.7401
  59   2.0000      -0.586859       -15.9692
  60   2.0000      -0.577401       -15.7119
  61   2.0000      -0.571646       -15.5553
  62   2.0000      -0.569632       -15.5005
  63   2.0000      -0.561518       -15.2797
  64   2.0000      -0.557348       -15.1662
  65   2.0000      -0.536431       -14.5970
  66   2.0000      -0.532134       -14.4801
  67   2.0000      -0.524309       -14.2672
  68   2.0000      -0.503850       -13.7105
  69   2.0000      -0.500114       -13.6088
  70   2.0000      -0.484029       -13.1711
  71   2.0000      -0.476085       -12.9549
  72   2.0000      -0.467340       -12.7170
  73   2.0000      -0.464770       -12.6470
  74   2.0000      -0.452969       -12.3259
  75   2.0000      -0.447686       -12.1821
  76   2.0000      -0.446582       -12.1521
  77   2.0000      -0.441524       -12.0145
  78   2.0000      -0.436967       -11.8905
  79   2.0000      -0.424230       -11.5439
  80   2.0000      -0.410710       -11.1760
  81   2.0000      -0.378095       -10.2885
  82   2.0000      -0.375369       -10.2143
  83   2.0000      -0.359528        -9.7832
  84   2.0000      -0.348504        -9.4833
  85   2.0000      -0.333983        -9.0881
  86   2.0000      -0.324217        -8.8224
  87   0.0000       0.001094         0.0298
  88   0.0000       0.002814         0.0766
  89   0.0000       0.010539         0.2868
  90   0.0000       0.014307         0.3893
  91   0.0000       0.019240         0.5235

MULLIKEN ATOMIC CHARGES
-----------------------
   0 C :   -0.163416
   1 C :    0.863821
   2 Cl:   -0.524744
   3 C :   -0.757208
   4 H :    0.386914
   5 C :   -0.472527
   6 C :    1.119986
   7 C :   -1.112855
   8 S :    2.157607
   9 O :   -0.979470
  10 O :   -0.956218
  11 N :   -0.646477
  12 H :    0.145065
  13 H :    0.138739
  14 H :    0.180977
  15 C :    0.789851
  16 N :    0.072887
  17 C :    1.370152
  18 C :    0.578421
  19 C :    0.747933
  20 O :   -1.003191
  21 C :   -1.212879
  22 C :   -0.533923
  23 C :   -0.505190
  24 C :   -1.043305
  25 O :   -0.897263
  26 H :    0.461103
  27 H :   -0.011596
  28 H :    0.394097
  29 H :    0.422832
  30 H :    0.728120
  31 H :    0.122285
  32 H :    0.139472
Sum of atomic charges:    0.0000000

LOEWDIN ATOMIC CHARGES
----------------------
   0 C :   -0.294972
   1 C :   -0.778450
   2 Cl:    1.058020
   3 C :    0.123964
   4 H :   -0.193532
   5 C :    0.217754
   6 C :   -0.079293
   7 C :    0.175747
   8 S :    0.103265
   9 O :    0.059538
  10 O :    0.093178
  11 N :    0.675384
  12 H :   -0.418180
  13 H :   -0.348592
  14 H :   -0.210812
  15 C :   -0.642485
  16 N :    0.575447
  17 C :   -0.104721
  18 C :   -0.640411
  19 C :   -0.104226
  20 O :    0.457570
  21 C :    0.253723
  22 C :    0.220695
  23 C :    0.218377
  24 C :    0.250981
  25 O :    0.866182
  26 H :   -0.175894
  27 H :   -0.239286
  28 H :   -0.161648
  29 H :   -0.175467
  30 H :   -0.177903
  31 H :   -0.158689
  32 H :   -0.445266

  Mayer bond orders larger than 0.100000
B(  0-C ,  1-C ) :   1.5515 B(  0-C ,  2-Cl) :   0.6962 B(  0-C ,  5-C ) :  -0.1503
B(  0-C ,  6-C ) :   0.3846 B(  0-C ,  7-C ) :   0.8083 B(  0-C ,  8-S ) :   0.7648
B(  0-C ,  9-O ) :   0.2891 B(  0-C , 10-O ) :   0.1137 B(  0-C , 15-C ) :  -0.2020
B(  1-C ,  2-Cl) :  -0.2345 B(  1-C ,  3-C ) :   1.3427 B(  1-C ,  5-C ) :   0.2920
B(  1-C ,  6-C ) :  -0.2018 B(  1-C ,  7-C ) :   0.2412 B(  1-C ,  8-S ) :   0.1821
B(  1-C , 11-N ) :  -0.1139 B(  1-C , 15-C ) :   0.2179 B(  1-C , 17-C ) :  -0.1008
B(  3-C ,  4-H ) :   0.8598 B(  3-C ,  5-C ) :   0.9374 B(  3-C ,  6-C ) :  -0.1723
B(  3-C ,  9-O ) :  -0.1013 B(  3-C , 26-H ) :  -0.1267 B(  4-H ,  7-C ) :   0.1089
B(  5-C ,  6-C ) :   0.3033 B(  5-C ,  7-C ) :  -0.2390 B(  5-C , 15-C ) :   0.1248
B(  5-C , 26-H ) :   0.7753 B(  6-C ,  7-C ) :  -0.2564 B(  6-C , 15-C ) :   0.5429
B(  6-C , 16-N ) :   0.1309 B(  6-C , 17-C ) :   0.5715 B(  6-C , 18-C ) :   0.1698
B(  6-C , 21-C ) :  -0.2777 B(  6-C , 25-O ) :   0.2449 B(  7-C , 14-H ) :   1.2290
B(  7-C , 15-C ) :   0.2955 B(  7-C , 16-N ) :  -0.2154 B(  7-C , 28-H ) :  -0.1083
B(  8-S ,  9-O ) :   1.2652 B(  8-S , 10-O ) :   1.2364 B(  8-S , 11-N ) :   0.9559
B( 11-N , 12-H ) :   0.9477 B( 11-N , 13-H ) :   0.9559 B( 15-C , 16-N ) :   1.0376
B( 15-C , 17-C ) :   0.3916 B( 15-C , 18-C ) :  -0.2681 B( 15-C , 19-C ) :   0.6756
B( 15-C , 20-O ) :   0.1565 B( 15-C , 21-C ) :   0.6950 B( 15-C , 22-C ) :  -0.1103
B( 15-C , 24-C ) :  -0.2588 B( 15-C , 25-O ) :  -0.2587 B( 15-C , 27-H ) :   0.1829
B( 16-N , 17-C ) :  -0.1033 B( 16-N , 18-C ) :   1.0756 B( 16-N , 19-C ) :  -0.4587
B( 16-N , 20-O ) :  -0.1340 B( 16-N , 27-H ) :   1.1135 B( 17-C , 18-C ) :   0.2621
B( 17-C , 19-C ) :   0.3270 B( 17-C , 20-O ) :   0.1013 B( 17-C , 21-C ) :  -0.3116
B( 17-C , 22-C ) :  -0.4833 B( 17-C , 23-C ) :  -0.1035 B( 17-C , 24-C ) :   0.3067
B( 17-C , 25-O ) :   0.1778 B( 17-C , 28-H ) :   0.1479 B( 17-C , 29-H ) :  -0.1487
B( 17-C , 30-H ) :   0.1867 B( 18-C , 20-O ) :   0.5506 B( 18-C , 21-C ) :  -0.2300
B( 18-C , 22-C ) :   0.1366 B( 18-C , 24-C ) :   0.1485 B( 18-C , 30-H ) :   0.1063
B( 18-C , 31-H ) :  -0.1518 B( 19-C , 20-O ) :   0.2979 B( 19-C , 22-C ) :   0.1092
B( 19-C , 23-C ) :   0.1939 B( 19-C , 24-C ) :   0.1658 B( 19-C , 26-H ) :   0.1023
B( 19-C , 28-H ) :  -0.1104 B( 19-C , 29-H ) :   0.3267 B( 19-C , 30-H ) :  -0.2119
B( 20-O , 31-H ) :   0.1564 B( 21-C , 22-C ) :   1.3453 B( 21-C , 23-C ) :   0.2603
B( 21-C , 24-C ) :   0.1248 B( 21-C , 28-H ) :   0.8291 B( 22-C , 23-C ) :   1.1886
B( 22-C , 24-C ) :  -0.2528 B( 22-C , 29-H ) :   0.7662 B( 23-C , 24-C ) :   1.1196
B( 23-C , 29-H ) :  -0.1313 B( 23-C , 30-H ) :   0.2898 B( 24-C , 31-H ) :   1.4180
B( 25-O , 32-H ) :   1.0491

MP2 TOTAL ENERGY:    -1807.034993315 Eh
Dispersion correction           -0.029576538
FINAL SINGLE POINT ENERGY     -1807.064569853462

DIPOLE MOMENT
-------------
                                X             Y             Z
Electronic contribution:    -13.91482       1.40989       4.39077
Nuclear contribution   :     13.10516      -4.09757      -5.20402
                        -----------------------------------------
Total Dipole Moment    :     -0.80966      -2.68768      -0.81325
                        -----------------------------------------
Magnitude (a.u.)       :      2.92243
Magnitude (Debye)      :      7.42822

Rotational constants in cm-1:     0.014083     0.005017     0.004547
Rotational constants in MHz :   422.210558   150.404974   136.324275

                             ****ORCA TERMINATED NORMALLY****
TOTAL RUN TIME: 0 days 0 hours 12 minutes 59 seconds 694 msec
