                         Program Version 5.0.3 -  RELEASE  -
|  1> !PAL8
|  2> !RI-DSD-PBEP86 D3BJ aug-cc-pVTZ aug-cc-pVTZ/C TightSCF
|  3> %maxcore 3000
|  4>
|  5>
|  6> * xyz 0 1
|  7> C -1.5836051893  1.0567282909 -1.0072975611
|  8> C -2.5090515043  1.6154837993 -1.8982665564
|  9> Cl -3.668838779  2.7878127326 -1.3783636576
| 10> C -2.5022145702  1.2291768266 -3.2367268272
| 11> H -3.215897588  1.6801972335 -3.9180182881
| 12> C -1.5993484743  0.2686181955 -3.6835734293
| 13> C -0.6946558154 -0.3099545265 -2.7961167081
| 14> C -0.6750229442  0.1148876525 -1.4664712886
| 15> S -1.613628403  1.4798744645  0.7464580067
| 16> O -1.2216080185  2.8702257575  0.8709964868
| 17> O -2.8681440465  0.9682778952  1.2658334207
| 18> N -0.4268342345  0.599428878  1.4733943089
| 19> H  0.5271871151  0.888375105  1.2840030807
| 20> H -0.569433265 -0.406398573  1.5349884413
| 21> H  0.0544300003 -0.2871962416 -0.7767762712
| 22> H -1.5937919771 -0.0443824943 -4.7233796703
| 23> C  0.2259760916 -1.3689702919 -3.3230483863
| 24> N  0.6702800806 -2.3307082331 -2.4283553638
| 25> O  0.5952031406 -1.3935983651 -4.4814501337
| 26> N -0.0214126076 -2.6256445659 -1.2795165313
| 27> C -0.9967123521 -3.7339323866 -1.2641469491
| 28> C -1.3759660323 -3.7923838711  0.2315265926
| 29> C -0.1580538971 -3.2132269276  0.9204275624
| 30> C  0.6224863505 -2.5570117617 -0.0402907248
| 31> C -2.1561414122 -3.4799138838 -2.2095769891
| 32> C  1.7941263187 -1.8863870421  0.2886800646
| 33> C  2.1727022596 -1.8731327985  1.6380573614
| 34> C  1.4005591596 -2.5064227546  2.6101725646
| 35> C  0.225657849 -3.1852581783  2.2506197842
| 36> H  1.2346562323 -3.0679862135 -2.8530317484
| 37> H -0.4743392328 -4.6654241416 -1.5475577625
| 38> H -1.6230889834 -4.8062976801  0.5559415794
| 39> H -2.2525723107 -3.1547737457  0.413286756
| 40> H -1.8135706412 -3.3980020435 -3.2469207555
| 41> H -2.6711037109 -2.5523109411 -1.9376362751
| 42> H -2.8710567115 -4.3069597232 -2.1587892557
| 43> H  2.391601801 -1.3989729266 -0.4768862944
| 44> H  3.0870366963 -1.3629313551  1.9270775862
| 45> H  1.7113558945 -2.4801805727  3.6494305711
| 46> H -0.3747862887 -3.6813165923  3.0087532599
| 47> *
| 48>
| 49>                          ****END OF INPUT****

CARTESIAN COORDINATES (ANGSTROEM)
---------------------------------
  C     -1.583605    1.056728   -1.007298
  C     -2.509052    1.615484   -1.898267
  Cl    -3.668839    2.787813   -1.378364
  C     -2.502215    1.229177   -3.236727
  H     -3.215898    1.680197   -3.918018
  C     -1.599348    0.268618   -3.683573
  C     -0.694656   -0.309955   -2.796117
  C     -0.675023    0.114888   -1.466471
  S     -1.613628    1.479874    0.746458
  O     -1.221608    2.870226    0.870996
  O     -2.868144    0.968278    1.265833
  N     -0.426834    0.599429    1.473394
  H      0.527187    0.888375    1.284003
  H     -0.569433   -0.406399    1.534988
  H      0.054430   -0.287196   -0.776776
  H     -1.593792   -0.044382   -4.723380
  C      0.225976   -1.368970   -3.323048
  N      0.670280   -2.330708   -2.428355
  O      0.595203   -1.393598   -4.481450
  N     -0.021413   -2.625645   -1.279517
  C     -0.996712   -3.733932   -1.264147
  C     -1.375966   -3.792384    0.231527
  C     -0.158054   -3.213227    0.920428
  C      0.622486   -2.557012   -0.040291
  C     -2.156141   -3.479914   -2.209577
  C      1.794126   -1.886387    0.288680
  C      2.172702   -1.873133    1.638057
  C      1.400559   -2.506423    2.610173
  C      0.225658   -3.185258    2.250620
  H      1.234656   -3.067986   -2.853032
  H     -0.474339   -4.665424   -1.547558
  H     -1.623089   -4.806298    0.555942
  H     -2.252572   -3.154774    0.413287
  H     -1.813571   -3.398002   -3.246921
  H     -2.671104   -2.552311   -1.937636
  H     -2.871057   -4.306960   -2.158789
  H      2.391602   -1.398973   -0.476886
  H      3.087037   -1.362931    1.927078
  H      1.711356   -2.480181    3.649431
  H     -0.374786   -3.681317    3.008753

 Total Charge           Charge          ....    0
 Multiplicity           Mult            ....    1
 Number of Electrons    NEL             ....  190
 Basis Dimension        Dim             .... 1480

ORBITAL ENERGIES
----------------

  NO   OCC          E(Eh)            E(eV)
   0   2.0000    -103.624725     -2819.7721
   1   2.0000     -91.045718     -2477.4799
   2   2.0000     -20.016024      -544.6637
   3   2.0000     -20.014909      -544.6334
   4   2.0000     -20.014849      -544.6317
   5   2.0000     -15.173468      -412.8911
   6   2.0000     -15.166413      -412.6991
   7   2.0000     -15.137600      -411.9150
   8   2.0000     -10.975698      -298.6639
   9   2.0000     -10.938460      -297.6506
  10   2.0000     -10.900198      -296.6095
  11   2.0000     -10.898250      -296.5564
  12   2.0000     -10.897710      -296.5418
  13   2.0000     -10.883811      -296.1636
  14   2.0000     -10.878780      -296.0267
  15   2.0000     -10.877290      -295.9861
  16   2.0000     -10.872348      -295.8516
  17   2.0000     -10.864738      -295.6445
  18   2.0000     -10.863741      -295.6174
  19   2.0000     -10.863342      -295.6066
  20   2.0000     -10.863213      -295.6031
  21   2.0000     -10.859411      -295.4996
  22   2.0000     -10.853557      -295.3403
  23   2.0000     -10.843195      -295.0583
  24   2.0000     -10.172495      -276.8077
  25   2.0000      -8.787720      -239.1260
  26   2.0000      -7.745751      -210.7726
  27   2.0000      -7.741067      -210.6451
  28   2.0000      -7.740780      -210.6373
  29   2.0000      -6.574224      -178.8937
  30   2.0000      -6.572572      -178.8488
  31   2.0000      -6.570855      -178.8021
  32   2.0000      -1.339223       -36.4421
  33   2.0000      -1.297748       -35.3135
  34   2.0000      -1.246376       -33.9156
  35   2.0000      -1.222630       -33.2694
  36   2.0000      -1.116697       -30.3869
  37   2.0000      -1.111302       -30.2401
  38   2.0000      -1.105852       -30.0918
  39   2.0000      -1.049743       -28.5650
  40   2.0000      -1.043939       -28.4070
  41   2.0000      -0.982078       -26.7237
  42   2.0000      -0.973509       -26.4905
  43   2.0000      -0.952529       -25.9196
  44   2.0000      -0.945209       -25.7205
  45   2.0000      -0.917533       -24.9673
  46   2.0000      -0.866976       -23.5916
  47   2.0000      -0.832378       -22.6502
  48   2.0000      -0.812438       -22.1076
  49   2.0000      -0.785474       -21.3738
  50   2.0000      -0.776257       -21.1230
  51   2.0000      -0.766103       -20.8467
  52   2.0000      -0.751736       -20.4558
  53   2.0000      -0.732642       -19.9362
  54   2.0000      -0.689973       -18.7751
  55   2.0000      -0.678142       -18.4532
  56   2.0000      -0.664516       -18.0824
  57   2.0000      -0.653774       -17.7901
  58   2.0000      -0.643783       -17.5182
  59   2.0000      -0.629405       -17.1270
  60   2.0000      -0.619368       -16.8539
  61   2.0000      -0.609103       -16.5745
  62   2.0000      -0.605238       -16.4694
  63   2.0000      -0.591528       -16.0963
  64   2.0000      -0.586282       -15.9535
  65   2.0000      -0.580976       -15.8091
  66   2.0000      -0.569554       -15.4984
  67   2.0000      -0.567345       -15.4382
  68   2.0000      -0.558607       -15.2005
  69   2.0000      -0.543541       -14.7905
  70   2.0000      -0.538984       -14.6665
  71   2.0000      -0.529275       -14.4023
  72   2.0000      -0.517918       -14.0933
  73   2.0000      -0.511633       -13.9222
  74   2.0000      -0.509366       -13.8606
  75   2.0000      -0.503071       -13.6892
  76   2.0000      -0.490241       -13.3401
  77   2.0000      -0.483773       -13.1641
  78   2.0000      -0.482543       -13.1307
  79   2.0000      -0.463740       -12.6190
  80   2.0000      -0.456259       -12.4154
  81   2.0000      -0.452584       -12.3154
  82   2.0000      -0.444466       -12.0945
  83   2.0000      -0.440210       -11.9787
  84   2.0000      -0.428247       -11.6532
  85   2.0000      -0.419671       -11.4198
  86   2.0000      -0.419026       -11.4023
  87   2.0000      -0.415289       -11.3006
  88   2.0000      -0.400691       -10.9034
  89   2.0000      -0.394842       -10.7442
  90   2.0000      -0.379486       -10.3263
  91   2.0000      -0.350503        -9.5377
  92   2.0000      -0.337733        -9.1902
  93   2.0000      -0.331109        -9.0099
  94   2.0000      -0.291252        -7.9254
  95   0.0000       0.001258         0.0342
  96   0.0000       0.006908         0.1880
  97   0.0000       0.014343         0.3903
  98   0.0000       0.017803         0.4844
  99   0.0000       0.019908         0.5417

MULLIKEN ATOMIC CHARGES
-----------------------
   0 C :    0.105215
   1 C :    0.853457
   2 Cl:   -0.536460
   3 C :   -0.438546
   4 H :    0.469497
   5 C :   -0.863005
   6 C :    1.710563
   7 C :   -1.505861
   8 S :    2.122337
   9 O :   -1.001210
  10 O :   -0.999138
  11 N :   -0.793256
  12 H :    0.061792
  13 H :    0.390639
  14 H :    0.657803
  15 H :    0.287551
  16 C :    0.421643
  17 N :   -0.675170
  18 O :   -1.103359
  19 N :    1.283793
  20 C :   -0.304981
  21 C :   -0.457178
  22 C :    0.628608
  23 C :    0.178302
  24 C :   -1.018338
  25 C :   -0.927224
  26 C :   -0.396216
  27 C :   -0.500155
  28 C :   -0.527953
  29 H :   -0.083579
  30 H :    0.240226
  31 H :    0.275665
  32 H :    0.198714
  33 H :    0.276451
  34 H :    0.391832
  35 H :    0.141469
  36 H :    0.388267
  37 H :    0.262045
  38 H :    0.742816
  39 H :    0.042943
Sum of atomic charges:    0.0000000

LOEWDIN ATOMIC CHARGES
----------------------
   0 C :   -0.285275
   1 C :   -0.794558
   2 Cl:    1.054047
   3 C :    0.129541
   4 H :   -0.194099
   5 C :    0.215767
   6 C :   -0.115788
   7 C :    0.156467
   8 S :    0.088157
   9 O :    0.057555
  10 O :    0.058709
  11 N :    0.692057
  12 H :   -0.334779
  13 H :   -0.368330
  14 H :   -0.271353
  15 H :   -0.165391
  16 C :   -0.657707
  17 N :    0.464216
  18 O :    0.479046
  19 N :    0.177292
  20 C :   -0.093957
  21 C :    0.339391
  22 C :   -0.078747
  23 C :   -0.243092
  24 C :    0.607887
  25 C :    0.227025
  26 C :    0.187867
  27 C :    0.194541
  28 C :    0.233488
  29 H :   -0.245372
  30 H :   -0.105903
  31 H :   -0.127211
  32 H :   -0.129543
  33 H :   -0.158230
  34 H :   -0.155321
  35 H :   -0.149175
  36 H :   -0.167160
  37 H :   -0.176080
  38 H :   -0.182608
  39 H :   -0.163374

  Mayer bond orders larger than 0.100000
B(  0-C ,  1-C ) :   0.8985 B(  0-C ,  2-Cl) :   0.9536 B(  0-C ,  5-C ) :  -0.2928
B(  0-C ,  6-C ) :   0.3811 B(  0-C ,  7-C ) :   0.8869 B(  0-C ,  8-S ) :   0.6855
B(  0-C ,  9-O ) :   0.2120 B(  0-C , 10-O ) :  -0.1399 B(  0-C , 11-N ) :   0.1007
B(  0-C , 16-C ) :   0.1059 B(  0-C , 23-C ) :  -0.1129 B(  0-C , 26-C ) :   0.1119
B(  1-C ,  2-Cl) :  -0.4832 B(  1-C ,  3-C ) :   1.2106 B(  1-C ,  5-C ) :   0.3473
B(  1-C ,  7-C ) :   0.6798 B(  1-C ,  8-S ) :   0.2230 B(  1-C ,  9-O ) :  -0.1025
B(  1-C , 11-N ) :  -0.1103 B(  1-C , 14-H ) :  -0.1221 B(  3-C ,  4-H ) :   0.6761
B(  3-C ,  5-C ) :   0.9665 B(  3-C ,  7-C ) :  -0.2415 B(  3-C , 22-C ) :  -0.1123
B(  3-C , 25-C ) :  -0.1010 B(  3-C , 27-C ) :  -0.2107 B(  3-C , 28-C ) :   0.1512
B(  3-C , 37-H ) :   0.3581 B(  3-C , 38-H ) :  -0.2615 B(  3-C , 39-H ) :   0.2547
B(  5-C ,  6-C ) :   0.1206 B(  5-C ,  7-C ) :   0.2011 B(  5-C , 15-H ) :   0.9491
B(  5-C , 16-C ) :  -0.2837 B(  5-C , 17-N ) :   0.1265 B(  5-C , 19-N ) :  -0.1034
B(  5-C , 22-C ) :   0.2030 B(  5-C , 23-C ) :   0.2037 B(  5-C , 26-C ) :  -0.2398
B(  5-C , 27-C ) :   0.1486 B(  5-C , 36-H ) :   0.1048 B(  5-C , 37-H ) :  -0.4889
B(  5-C , 38-H ) :   0.4230 B(  5-C , 39-H ) :  -0.3675 B(  6-C , 14-H ) :  -0.2166
B(  6-C , 17-N ) :  -0.5278 B(  6-C , 18-O ) :   0.1661 B(  6-C , 19-N ) :   0.4005
B(  6-C , 26-C ) :   0.1345 B(  6-C , 39-H ) :   0.1212 B(  7-C ,  8-S ) :   0.1986
B(  7-C , 10-O ) :   0.1223 B(  7-C , 14-H ) :   0.4383 B(  7-C , 15-H ) :   0.1145
B(  7-C , 16-C ) :   0.4441 B(  7-C , 19-N ) :  -0.2123 B(  7-C , 25-C ) :   0.1545
B(  8-S ,  9-O ) :   1.1320 B(  8-S , 10-O ) :   1.3985 B(  8-S , 11-N ) :   0.8943
B( 11-N , 12-H ) :   1.0104 B( 11-N , 13-H ) :   0.5923 B( 14-H , 17-N ) :   0.2542
B( 14-H , 19-N ) :  -0.1849 B( 14-H , 25-C ) :   0.1032 B( 15-H , 18-O ) :   0.1524
B( 15-H , 38-H ) :  -0.1309 B( 16-C , 17-N ) :   1.3733 B( 16-C , 18-O ) :   0.4339
B( 16-C , 19-N ) :   0.1269 B( 16-C , 23-C ) :   0.1211 B( 17-N , 18-O ) :  -0.1578
B( 17-N , 19-N ) :  -0.1674 B( 17-N , 22-C ) :  -0.1313 B( 17-N , 29-H ) :   1.1864
B( 18-O , 19-N ) :   0.2119 B( 19-N , 20-C ) :   0.7218 B( 19-N , 22-C ) :  -0.2264
B( 19-N , 23-C ) :   0.4586 B( 19-N , 25-C ) :  -0.5469 B( 19-N , 30-H ) :  -0.1551
B( 19-N , 37-H ) :  -0.1577 B( 19-N , 38-H ) :   0.1465 B( 19-N , 39-H ) :  -0.1472
B( 20-C , 21-C ) :   0.9532 B( 20-C , 22-C ) :   0.2925 B( 20-C , 24-C ) :   0.7800
B( 20-C , 30-H ) :   0.9393 B( 21-C , 22-C ) :   0.3158 B( 21-C , 23-C ) :   0.1484
B( 21-C , 25-C ) :  -0.2336 B( 21-C , 28-C ) :   0.1463 B( 21-C , 31-H ) :   1.0261
B( 21-C , 32-H ) :   1.0882 B( 21-C , 39-H ) :  -0.1425 B( 22-C , 23-C ) :   0.9028
B( 22-C , 25-C ) :  -0.1392 B( 22-C , 27-C ) :   0.7262 B( 22-C , 28-C ) :   0.9266
B( 22-C , 36-H ) :  -0.1467 B( 22-C , 37-H ) :   0.2620 B( 22-C , 38-H ) :  -0.2857
B( 22-C , 39-H ) :  -0.1647 B( 23-C , 25-C ) :   1.1666 B( 23-C , 26-C ) :  -0.1160
B( 23-C , 27-C ) :  -0.2056 B( 23-C , 28-C ) :  -0.1105 B( 23-C , 30-H ) :   0.1106
B( 23-C , 37-H ) :   0.1587 B( 23-C , 39-H ) :   0.3767 B( 24-C , 33-H ) :   0.9802
B( 24-C , 34-H ) :   0.8652 B( 24-C , 35-H ) :   1.0777 B( 25-C , 26-C ) :   1.1454
B( 25-C , 27-C ) :   0.4129 B( 25-C , 28-C ) :   0.2889 B( 25-C , 36-H ) :   0.8417
B( 25-C , 37-H ) :  -0.1785 B( 25-C , 39-H ) :   0.1674 B( 26-C , 27-C ) :   1.1649
B( 26-C , 28-C ) :  -0.3306 B( 26-C , 37-H ) :   1.0552 B( 26-C , 38-H ) :   0.1451
B( 27-C , 28-C ) :   0.9965 B( 27-C , 37-H ) :  -0.1790 B( 27-C , 38-H ) :   0.1654
B( 27-C , 39-H ) :  -0.1055 B( 28-C , 37-H ) :   0.1206 B( 28-C , 38-H ) :   0.1712
B( 28-C , 39-H ) :   1.4274

MP2 TOTAL ENERGY:    -1865.631864523 Eh
Dispersion correction           -0.035593842
FINAL SINGLE POINT ENERGY     -1865.667458365385

DIPOLE MOMENT
-------------
                                X             Y             Z
Electronic contribution:     -8.86800      24.99860      -3.01439
Nuclear contribution   :      9.60759     -27.55901       2.79061
                        -----------------------------------------
Total Dipole Moment    :      0.73959      -2.56041      -0.22378
                        -----------------------------------------
Magnitude (a.u.)       :      2.67447
Magnitude (Debye)      :      6.79796

Rotational constants in cm-1:     0.009563     0.006205     0.004621
Rotational constants in MHz :   286.684041   186.023310   138.536270

                             ****ORCA TERMINATED NORMALLY****
TOTAL RUN TIME: 0 days 0 hours 18 minutes 46 seconds 372 msec
