                         Program Version 5.0.3 -  RELEASE  -
|  1> !PAL8
|  2> !RI-DSD-PBEP86 D3BJ aug-cc-pVTZ aug-cc-pVTZ/C TightSCF
|  3> %maxcore 3000
|  4>
|  5>
|  6> * xyz 0 1
|  7> C -1.6471560889  1.0893216627 -0.919083703
|  8> C -2.7758045493  0.5313510089 -1.5557606689
|  9> C -4.137190825  0.4105916403 -0.8953096942
| 10> C -2.6795690248  0.0702562886 -2.8586090947
| 11> H -3.5509506231 -0.3562669409 -3.3442744312
| 12> C -1.4631916794  0.1400546175 -3.5589334758
| 13> C -0.3438763498  0.6901904386 -2.9170840404
| 14> C  0.9356185741  0.8553084482 -3.6663068331
| 15> C -0.4464628294  1.1644134009 -1.6133702641
| 16> S -1.641152899  1.7783959562  0.7442479513
| 17> O -0.3685815111  2.4611974599  0.8849740738
| 18> O -2.9117740693  2.4413042963  0.9495570245
| 19> N -1.580106311  0.5202978096  1.8246675109
| 20> H -0.705546714  0.0050660903  1.7741150692
| 21> H -2.4035424485 -0.0736909817  1.7945391012
| 22> N -1.3583965482 -0.2777273908 -4.8676100178
| 23> C -0.0438105371 -0.6930274009 -5.3294541926
| 24> N  0.906608124  0.3324026657 -4.9368239541
| 25> H -2.1152863024 -0.8612653507 -5.210450313
| 26> F -4.9132898894 -0.4731842147 -1.5511122484
| 27> F -4.801723025  1.5630691873 -0.8707110185
| 28> F -4.0434164417 -0.0490311319  0.3697318385
| 29> H  1.7964379618  0.3625919145 -5.4231282327
| 30> C -0.0418724778 -0.8552154479 -6.8508640078
| 31> C -1.0690550948 -1.8645615013 -7.3031771682
| 32> C -0.8229028908 -3.2362138653 -7.1766589349
| 33> H  0.1390862589 -3.5758784017 -6.7975311252
| 34> C -1.7913201497 -4.1687328332 -7.5411368579
| 35> H -1.5837022668 -5.2300407141 -7.441937561
| 36> C -3.022495058 -3.7404124343 -8.0378547987
| 37> H -3.7765823004 -4.4668234503 -8.325173566
| 38> C -3.2775928158 -2.3770086922 -8.1701992748
| 39> H -4.230899037 -2.0358214969 -8.5628957186
| 40> C -2.3057984065 -1.4455654746 -7.8038747566
| 41> H -2.5042190013 -0.3814815894 -7.9133894161
| 42> H  0.2246095896 -1.6599399696 -4.862566657
| 43> H  0.9622787364 -1.1729150265 -7.1575634552
| 44> H -0.2390512655  0.1271597031 -7.292319149
| 45> O  1.899841184  1.4479764842 -3.2198507894
| 46> H  0.4241970018  1.623015236 -1.1526641505
| 47> *
| 48>
| 49>                          ****END OF INPUT****

CARTESIAN COORDINATES (ANGSTROEM)
---------------------------------
  C     -1.647156    1.089322   -0.919084
  C     -2.775805    0.531351   -1.555761
  C     -4.137191    0.410592   -0.895310
  C     -2.679569    0.070256   -2.858609
  H     -3.550951   -0.356267   -3.344274
  C     -1.463192    0.140055   -3.558933
  C     -0.343876    0.690190   -2.917084
  C      0.935619    0.855308   -3.666307
  C     -0.446463    1.164413   -1.613370
  S     -1.641153    1.778396    0.744248
  O     -0.368582    2.461197    0.884974
  O     -2.911774    2.441304    0.949557
  N     -1.580106    0.520298    1.824668
  H     -0.705547    0.005066    1.774115
  H     -2.403542   -0.073691    1.794539
  N     -1.358397   -0.277727   -4.867610
  C     -0.043811   -0.693027   -5.329454
  N      0.906608    0.332403   -4.936824
  H     -2.115286   -0.861265   -5.210450
  F     -4.913290   -0.473184   -1.551112
  F     -4.801723    1.563069   -0.870711
  F     -4.043416   -0.049031    0.369732
  H      1.796438    0.362592   -5.423128
  C     -0.041872   -0.855215   -6.850864
  C     -1.069055   -1.864562   -7.303177
  C     -0.822903   -3.236214   -7.176659
  H      0.139086   -3.575878   -6.797531
  C     -1.791320   -4.168733   -7.541137
  H     -1.583702   -5.230041   -7.441938
  C     -3.022495   -3.740412   -8.037855
  H     -3.776582   -4.466823   -8.325174
  C     -3.277593   -2.377009   -8.170199
  H     -4.230899   -2.035821   -8.562896
  C     -2.305798   -1.445565   -7.803875
  H     -2.504219   -0.381482   -7.913389
  H      0.224610   -1.659940   -4.862567
  H      0.962279   -1.172915   -7.157563
  H     -0.239051    0.127160   -7.292319
  O      1.899841    1.447976   -3.219851
  H      0.424197    1.623015   -1.152664

 Total Charge           Charge          ....    0
 Multiplicity           Mult            ....    1
 Number of Electrons    NEL             ....  198
 Basis Dimension        Dim             .... 1522

ORBITAL ENERGIES
----------------

  NO   OCC          E(Eh)            E(eV)
   0   2.0000     -91.042681     -2477.3973
   1   2.0000     -25.747142      -700.6153
   2   2.0000     -25.744713      -700.5493
   3   2.0000     -25.737275      -700.3469
   4   2.0000     -20.014399      -544.6195
   5   2.0000     -20.013155      -544.5856
   6   2.0000     -20.005446      -544.3759
   7   2.0000     -15.146942      -412.1692
   8   2.0000     -15.140773      -412.0014
   9   2.0000     -15.134756      -411.8376
  10   2.0000     -11.120726      -302.6104
  11   2.0000     -10.967741      -298.4474
  12   2.0000     -10.946801      -297.8776
  13   2.0000     -10.932232      -297.4812
  14   2.0000     -10.912056      -296.9321
  15   2.0000     -10.894426      -296.4524
  16   2.0000     -10.882385      -296.1248
  17   2.0000     -10.879919      -296.0577
  18   2.0000     -10.875701      -295.9429
  19   2.0000     -10.874103      -295.8994
  20   2.0000     -10.871421      -295.8264
  21   2.0000     -10.864948      -295.6503
  22   2.0000     -10.864567      -295.6399
  23   2.0000     -10.863931      -295.6226
  24   2.0000     -10.863409      -295.6084
  25   2.0000     -10.861698      -295.5618
  26   2.0000      -8.785123      -239.0554
  27   2.0000      -6.571227      -178.8122
  28   2.0000      -6.570180      -178.7837
  29   2.0000      -6.568348      -178.7338
  30   2.0000      -1.594624       -43.3919
  31   2.0000      -1.502170       -40.8761
  32   2.0000      -1.497672       -40.7537
  33   2.0000      -1.339075       -36.4381
  34   2.0000      -1.281274       -34.8652
  35   2.0000      -1.223773       -33.3006
  36   2.0000      -1.210287       -32.9336
  37   2.0000      -1.127327       -30.6761
  38   2.0000      -1.110073       -30.2066
  39   2.0000      -1.091051       -29.6890
  40   2.0000      -1.078974       -29.3604
  41   2.0000      -1.011078       -27.5128
  42   2.0000      -0.991803       -26.9883
  43   2.0000      -0.962373       -26.1875
  44   2.0000      -0.947085       -25.7715
  45   2.0000      -0.910697       -24.7813
  46   2.0000      -0.905056       -24.6278
  47   2.0000      -0.836733       -22.7687
  48   2.0000      -0.828462       -22.5436
  49   2.0000      -0.810497       -22.0547
  50   2.0000      -0.780641       -21.2423
  51   2.0000      -0.777950       -21.1691
  52   2.0000      -0.757685       -20.6177
  53   2.0000      -0.755013       -20.5450
  54   2.0000      -0.750915       -20.4334
  55   2.0000      -0.745409       -20.2836
  56   2.0000      -0.722857       -19.6699
  57   2.0000      -0.683683       -18.6040
  58   2.0000      -0.678779       -18.4705
  59   2.0000      -0.663381       -18.0515
  60   2.0000      -0.661202       -17.9922
  61   2.0000      -0.655826       -17.8459
  62   2.0000      -0.641093       -17.4450
  63   2.0000      -0.638258       -17.3679
  64   2.0000      -0.628964       -17.1150
  65   2.0000      -0.614200       -16.7132
  66   2.0000      -0.600850       -16.3499
  67   2.0000      -0.599271       -16.3070
  68   2.0000      -0.597709       -16.2645
  69   2.0000      -0.595530       -16.2052
  70   2.0000      -0.594254       -16.1705
  71   2.0000      -0.584760       -15.9121
  72   2.0000      -0.575486       -15.6598
  73   2.0000      -0.573325       -15.6010
  74   2.0000      -0.564560       -15.3625
  75   2.0000      -0.557352       -15.1663
  76   2.0000      -0.554581       -15.0909
  77   2.0000      -0.550296       -14.9743
  78   2.0000      -0.540095       -14.6967
  79   2.0000      -0.535772       -14.5791
  80   2.0000      -0.521519       -14.1913
  81   2.0000      -0.508855       -13.8466
  82   2.0000      -0.505264       -13.7489
  83   2.0000      -0.488069       -13.2810
  84   2.0000      -0.478688       -13.0258
  85   2.0000      -0.464872       -12.6498
  86   2.0000      -0.463046       -12.6001
  87   2.0000      -0.452875       -12.3233
  88   2.0000      -0.449655       -12.2357
  89   2.0000      -0.438100       -11.9213
  90   2.0000      -0.417754       -11.3677
  91   2.0000      -0.415798       -11.3144
  92   2.0000      -0.409733       -11.1494
  93   2.0000      -0.388808       -10.5800
  94   2.0000      -0.372902       -10.1472
  95   2.0000      -0.360493        -9.8095
  96   2.0000      -0.340553        -9.2669
  97   2.0000      -0.334450        -9.1009
  98   2.0000      -0.310901        -8.4601
  99   0.0000      -0.006630        -0.1804
 100   0.0000       0.002389         0.0650
 101   0.0000       0.011169         0.3039
 102   0.0000       0.012647         0.3441
 103   0.0000       0.016306         0.4437

MULLIKEN ATOMIC CHARGES
-----------------------
   0 C :    0.095162
   1 C :    0.868001
   2 C :    1.107853
   3 C :   -0.606397
   4 H :    0.245899
   5 C :    0.619830
   6 C :    1.226474
   7 C :   -0.209502
   8 C :   -1.271462
   9 S :    2.187203
  10 O :   -1.000551
  11 O :   -0.992220
  12 N :   -0.641838
  13 H :    0.124057
  14 H :    0.202502
  15 N :   -0.650451
  16 C :    0.676970
  17 N :   -0.160556
  18 H :    0.114360
  19 F :   -0.384245
  20 F :   -0.407153
  21 F :   -0.428257
  22 H :    0.050291
  23 C :   -0.681699
  24 C :    1.642171
  25 C :   -1.052947
  26 H :    0.160203
  27 C :   -0.627094
  28 H :    0.560658
  29 C :   -0.216738
  30 H :    0.437321
  31 C :   -0.601860
  32 H :    0.620935
  33 C :   -0.936578
  34 H :    0.112559
  35 H :    0.297053
  36 H :    0.322923
  37 H :    0.129858
  38 O :   -0.990314
  39 H :    0.057579
Sum of atomic charges:    0.0000000

LOEWDIN ATOMIC CHARGES
----------------------
   0 C :   -0.197907
   1 C :   -0.163196
   2 C :   -1.520853
   3 C :    0.247381
   4 H :   -0.189710
   5 C :   -0.182739
   6 C :   -0.070871
   7 C :   -0.647858
   8 C :    0.173776
   9 S :    0.129754
  10 O :    0.094842
  11 O :    0.076047
  12 N :    0.689469
  13 H :   -0.349521
  14 H :   -0.419054
  15 N :    0.610684
  16 C :   -0.207546
  17 N :    0.588937
  18 H :   -0.286387
  19 F :    0.539405
  20 F :    0.542159
  21 F :    0.543955
  22 H :   -0.260851
  23 C :    0.303962
  24 C :   -0.122624
  25 C :    0.219382
  26 H :   -0.165635
  27 C :    0.205216
  28 H :   -0.176680
  29 C :    0.199279
  30 H :   -0.178584
  31 C :    0.205700
  32 H :   -0.176417
  33 C :    0.214017
  34 H :   -0.165082
  35 H :   -0.103519
  36 H :   -0.130808
  37 H :   -0.134990
  38 O :    0.475554
  39 H :   -0.208688

  Mayer bond orders larger than 0.100000
B(  0-C ,  1-C ) :   0.9182 B(  0-C ,  3-C ) :  -0.1067 B(  0-C ,  5-C ) :  -0.1786
B(  0-C ,  6-C ) :   0.8267 B(  0-C ,  8-C ) :   1.1304 B(  0-C ,  9-S ) :   0.8206
B(  0-C , 10-O ) :   0.2393 B(  0-C , 11-O ) :   0.2691 B(  0-C , 12-N ) :   0.1246
B(  0-C , 21-F ) :   0.3242 B(  0-C , 24-C ) :   0.1634 B(  0-C , 25-C ) :  -0.2736
B(  0-C , 26-H ) :   0.2595 B(  0-C , 28-H ) :  -0.2755 B(  0-C , 30-H ) :   0.3218
B(  0-C , 32-H ) :  -0.3958 B(  0-C , 33-C ) :   0.1517 B(  0-C , 34-H ) :   0.1881
B(  0-C , 38-O ) :  -0.3561 B(  0-C , 39-H ) :  -0.1196 B(  1-C ,  2-C ) :   0.7835
B(  1-C ,  3-C ) :   0.6105 B(  1-C ,  4-H ) :  -0.1361 B(  1-C ,  5-C ) :   0.4981
B(  1-C ,  6-C ) :  -0.1663 B(  1-C ,  8-C ) :  -0.2576 B(  1-C ,  9-S ) :  -0.1409
B(  1-C , 12-N ) :  -0.1245 B(  1-C , 15-N ) :  -0.1013 B(  1-C , 19-F ) :   0.4377
B(  1-C , 20-F ) :   0.1719 B(  1-C , 21-F ) :  -0.2597 B(  1-C , 24-C ) :  -0.1794
B(  1-C , 25-C ) :   0.1287 B(  1-C , 26-H ) :  -0.1229 B(  1-C , 27-C ) :   0.1273
B(  1-C , 28-H ) :  -0.1218 B(  1-C , 29-C ) :   0.1313 B(  1-C , 30-H ) :  -0.3178
B(  1-C , 31-C ) :   0.1663 B(  1-C , 32-H ) :   0.1355 B(  2-C , 19-F ) :   0.6421
B(  2-C , 20-F ) :   0.7853 B(  2-C , 21-F ) :   0.8116 B(  2-C , 26-H ) :  -0.1428
B(  2-C , 28-H ) :   0.1304 B(  3-C ,  4-H ) :   1.0395 B(  3-C ,  5-C ) :  -0.5949
B(  3-C ,  6-C ) :   0.3404 B(  3-C ,  9-S ) :  -0.1055 B(  3-C , 11-O ) :  -0.1266
B(  3-C , 15-N ) :  -0.3754 B(  3-C , 17-N ) :   0.1793 B(  3-C , 19-F ) :  -0.2204
B(  3-C , 21-F ) :  -0.1627 B(  3-C , 24-C ) :   0.1343 B(  3-C , 26-H ) :   0.2006
B(  3-C , 28-H ) :  -0.4170 B(  3-C , 30-H ) :   0.3028 B(  3-C , 32-H ) :  -0.3537
B(  3-C , 34-H ) :   0.2124 B(  4-H ,  5-C ) :  -0.1102 B(  5-C ,  6-C ) :   0.2489
B(  5-C ,  7-C ) :   0.7006 B(  5-C ,  8-C ) :  -0.2520 B(  5-C , 15-N ) :   0.7460
B(  5-C , 17-N ) :   0.3114 B(  5-C , 19-F ) :  -0.1091 B(  5-C , 23-C ) :   0.1916
B(  5-C , 25-C ) :   0.1644 B(  5-C , 26-H ) :  -0.1620 B(  5-C , 27-C ) :  -0.1211
B(  5-C , 34-H ) :  -0.2135 B(  5-C , 38-O ) :   0.1620 B(  6-C ,  7-C ) :  -0.7920
B(  6-C , 16-C ) :   0.2351 B(  6-C , 17-N ) :  -0.6851 B(  6-C , 23-C ) :  -0.1171
B(  6-C , 26-H ) :   0.1117 B(  6-C , 28-H ) :   0.1360 B(  6-C , 29-C ) :  -0.1833
B(  6-C , 30-H ) :   0.1230 B(  6-C , 32-H ) :   0.2435 B(  6-C , 33-C ) :  -0.2145
B(  6-C , 34-H ) :  -0.1789 B(  6-C , 38-O ) :   0.9542 B(  6-C , 39-H ) :  -0.2083
B(  7-C ,  8-C ) :   0.1105 B(  7-C , 16-C ) :  -0.2267 B(  7-C , 17-N ) :   1.2003
B(  7-C , 26-H ) :  -0.1247 B(  7-C , 30-H ) :  -0.1190 B(  7-C , 38-O ) :   0.7430
B(  8-C ,  9-S ) :   0.2444 B(  8-C , 21-F ) :   0.1468 B(  8-C , 26-H ) :  -0.1294
B(  8-C , 27-C ) :  -0.1166 B(  8-C , 28-H ) :   0.5908 B(  8-C , 30-H ) :  -0.3101
B(  8-C , 31-C ) :  -0.1786 B(  8-C , 32-H ) :   0.2606 B(  8-C , 38-O ) :  -0.4856
B(  8-C , 39-H ) :   1.6289 B(  9-S , 10-O ) :   1.0754 B(  9-S , 11-O ) :   1.2369
B(  9-S , 12-N ) :   0.9146 B( 12-N , 13-H ) :   0.9809 B( 12-N , 14-H ) :   0.9058
B( 15-N , 16-C ) :   0.6716 B( 15-N , 18-H ) :   0.9722 B( 15-N , 23-C ) :   0.1675
B( 16-C , 17-N ) :   0.4982 B( 16-C , 23-C ) :   0.7138 B( 16-C , 24-C ) :   0.1183
B( 16-C , 25-C ) :  -0.1471 B( 16-C , 35-H ) :   0.8742 B( 17-N , 22-H ) :   1.0393
B( 17-N , 38-O ) :  -0.1846 B( 23-C , 24-C ) :   0.4099 B( 23-C , 25-C ) :   0.2173
B( 23-C , 33-C ) :   0.3375 B( 23-C , 36-H ) :   0.9630 B( 23-C , 37-H ) :   1.1622
B( 24-C , 25-C ) :   0.4770 B( 24-C , 26-H ) :  -0.1391 B( 24-C , 31-C ) :   0.1112
B( 24-C , 33-C ) :   0.4033 B( 24-C , 34-H ) :  -0.1756 B( 25-C , 26-H ) :   1.1764
B( 25-C , 27-C ) :   1.4455 B( 25-C , 33-C ) :  -0.3007 B( 27-C , 28-H ) :   0.6114
B( 27-C , 29-C ) :   1.1405 B( 27-C , 30-H ) :  -0.1160 B( 27-C , 31-C ) :   0.1010
B( 29-C , 30-H ) :   0.7654 B( 29-C , 31-C ) :   1.1595 B( 29-C , 33-C ) :  -0.1132
B( 30-H , 31-C ) :  -0.1129 B( 31-C , 32-H ) :   0.5556 B( 31-C , 33-C ) :   1.2796
B( 32-H , 33-C ) :  -0.1117 B( 33-C , 34-H ) :   1.4505

MP2 TOTAL ENERGY:    -1703.860558492 Eh
Dispersion correction           -0.032337802
FINAL SINGLE POINT ENERGY     -1703.892896294409

DIPOLE MOMENT
-------------
                                X             Y             Z
Electronic contribution:    -14.81859      14.27049      30.19257
Nuclear contribution   :     14.66077     -17.71800     -33.19207
                        -----------------------------------------
Total Dipole Moment    :     -0.15782      -3.44751      -2.99950
                        -----------------------------------------
Magnitude (a.u.)       :      4.57245
Magnitude (Debye)      :     11.62223

Rotational constants in cm-1:     0.011110     0.003365     0.002757
Rotational constants in MHz :   333.083015   100.873464    82.647935

                             ****ORCA TERMINATED NORMALLY****
TOTAL RUN TIME: 0 days 0 hours 18 minutes 45 seconds 473 msec
