                         Program Version 5.0.3 -  RELEASE  -
|  1> !PAL8
|  2> !RI-DSD-PBEP86 D3BJ aug-cc-pVTZ aug-cc-pVTZ/C TightSCF
|  3> %maxcore 3000
|  4>
|  5>
|  6> * xyz 0 1
|  7> S -2.4043558553  1.3241173262 -1.0137656579
|  8> O -2.6107590393  2.7496507224 -1.1915617248
|  9> O -3.4511023234  0.4397300545 -0.5298706822
| 10> N -1.1080774555  1.1585408207  0.0046393209
| 11> H -0.3053168444  1.6909440815 -0.3270156165
| 12> H -0.8677005338  0.1832148839  0.1651566477
| 13> C -1.88227765  0.6610834569 -2.6279058874
| 14> N -0.5311316623  1.1083121995 -2.9165644755
| 15> C -0.2152857768  1.1562203678 -4.3637284659
| 16> C  0.3038806767 -0.2320896084 -4.6412801652
| 17> C  0.6343112867 -0.7707150266 -3.4051071209
| 18> O  0.3470173246  0.0956782414 -2.3732925211
| 19> C  0.5396538946 -0.9600064887 -5.7972470329
| 20> C  1.1116786416 -2.2314740316 -5.6793070507
| 21> C  1.4430423594 -2.7480086766 -4.425473545
| 22> C  1.2079673676 -2.021524134 -3.254068566
| 23> H -2.5882853644  1.0964965003 -3.3396499838
| 24> H -1.986922082 -0.4297095182 -2.599945645
| 25> H -1.1081865948  1.4401121184 -4.9243915329
| 26> H  0.2905015612 -0.5546499634 -6.7737813562
| 27> H  1.2994988712 -2.8214278817 -6.5704853249
| 28> H  1.8852959438 -3.7369095979 -4.3534249621
| 29> H  1.4569728958 -2.4138437648 -2.2740435933
| 30> H  0.5580293585  1.9144959185 -4.5266300581
| 31> *
| 32>
| 33>                          ****END OF INPUT****

CARTESIAN COORDINATES (ANGSTROEM)
---------------------------------
  S     -2.404356    1.324117   -1.013766
  O     -2.610759    2.749651   -1.191562
  O     -3.451102    0.439730   -0.529871
  N     -1.108077    1.158541    0.004639
  H     -0.305317    1.690944   -0.327016
  H     -0.867701    0.183215    0.165157
  C     -1.882278    0.661083   -2.627906
  N     -0.531132    1.108312   -2.916564
  C     -0.215286    1.156220   -4.363728
  C      0.303881   -0.232090   -4.641280
  C      0.634311   -0.770715   -3.405107
  O      0.347017    0.095678   -2.373293
  C      0.539654   -0.960006   -5.797247
  C      1.111679   -2.231474   -5.679307
  C      1.443042   -2.748009   -4.425474
  C      1.207967   -2.021524   -3.254069
  H     -2.588285    1.096497   -3.339650
  H     -1.986922   -0.429710   -2.599946
  H     -1.108187    1.440112   -4.924392
  H      0.290502   -0.554650   -6.773781
  H      1.299499   -2.821428   -6.570485
  H      1.885296   -3.736910   -4.353425
  H      1.456973   -2.413844   -2.274044
  H      0.558029    1.914496   -4.526630

 Total Charge           Charge          ....    0
 Multiplicity           Mult            ....    1
 Number of Electrons    NEL             ....  112
 Basis Dimension        Dim             ....  878

ORBITAL ENERGIES
----------------

  NO   OCC          E(Eh)            E(eV)
   0   2.0000     -91.033293     -2477.1418
   1   2.0000     -20.105705      -547.1040
   2   2.0000     -20.013328      -544.5903
   3   2.0000     -20.011457      -544.5394
   4   2.0000     -15.192917      -413.4203
   5   2.0000     -15.132661      -411.7806
   6   2.0000     -10.917624      -297.0837
   7   2.0000     -10.913461      -296.9704
   8   2.0000     -10.901903      -296.6559
   9   2.0000     -10.868016      -295.7337
  10   2.0000     -10.866070      -295.6808
  11   2.0000     -10.863947      -295.6230
  12   2.0000     -10.861881      -295.5668
  13   2.0000     -10.855787      -295.4010
  14   2.0000      -8.777131      -238.8379
  15   2.0000      -6.563296      -178.5964
  16   2.0000      -6.561555      -178.5490
  17   2.0000      -6.560291      -178.5146
  18   2.0000      -1.358862       -36.9765
  19   2.0000      -1.332950       -36.2714
  20   2.0000      -1.218452       -33.1558
  21   2.0000      -1.113175       -30.2910
  22   2.0000      -1.100368       -29.9425
  23   2.0000      -1.073937       -29.2233
  24   2.0000      -0.981095       -26.6969
  25   2.0000      -0.940979       -25.6053
  26   2.0000      -0.914561       -24.8865
  27   2.0000      -0.821436       -22.3524
  28   2.0000      -0.778778       -21.1916
  29   2.0000      -0.771806       -21.0019
  30   2.0000      -0.755530       -20.5590
  31   2.0000      -0.679750       -18.4969
  32   2.0000      -0.662427       -18.0256
  33   2.0000      -0.656119       -17.8539
  34   2.0000      -0.645810       -17.5734
  35   2.0000      -0.628350       -17.0983
  36   2.0000      -0.612638       -16.6707
  37   2.0000      -0.596911       -16.2428
  38   2.0000      -0.583692       -15.8831
  39   2.0000      -0.569491       -15.4966
  40   2.0000      -0.561308       -15.2740
  41   2.0000      -0.554099       -15.0778
  42   2.0000      -0.542551       -14.7635
  43   2.0000      -0.521392       -14.1878
  44   2.0000      -0.510843       -13.9007
  45   2.0000      -0.487311       -13.2604
  46   2.0000      -0.469168       -12.7667
  47   2.0000      -0.457969       -12.4620
  48   2.0000      -0.449844       -12.2409
  49   2.0000      -0.435432       -11.8487
  50   2.0000      -0.422762       -11.5039
  51   2.0000      -0.413769       -11.2592
  52   2.0000      -0.407671       -11.0933
  53   2.0000      -0.374095       -10.1796
  54   2.0000      -0.338086        -9.1998
  55   2.0000      -0.311235        -8.4691
  56   0.0000       0.008361         0.2275
  57   0.0000       0.016255         0.4423
  58   0.0000       0.019793         0.5386
  59   0.0000       0.023312         0.6344
  60   0.0000       0.033387         0.9085

MULLIKEN ATOMIC CHARGES
-----------------------
   0 S :    2.098203
   1 O :   -0.951965
   2 O :   -0.963942
   3 N :   -0.592489
   4 H :    0.191911
   5 H :    0.130865
   6 C :   -0.495839
   7 N :   -0.145376
   8 C :   -0.356826
   9 C :    0.810760
  10 C :    0.683793
  11 O :   -0.824510
  12 C :   -0.711860
  13 C :   -0.591520
  14 C :   -0.279597
  15 C :   -1.141006
  16 H :    0.334078
  17 H :    0.373928
  18 H :    0.328786
  19 H :    0.143115
  20 H :    0.625479
  21 H :    0.406697
  22 H :    0.598326
  23 H :    0.328989
Sum of atomic charges:    0.0000000

LOEWDIN ATOMIC CHARGES
----------------------
   0 S :    0.119919
   1 O :    0.056589
   2 O :    0.050391
   3 N :    0.682556
   4 H :   -0.368028
   5 H :   -0.355948
   6 C :    0.048485
   7 N :    0.068558
   8 C :    0.198176
   9 C :   -0.106931
  10 C :   -0.411127
  11 O :    0.514468
  12 C :    0.231140
  13 C :    0.196825
  14 C :    0.192031
  15 C :    0.232369
  16 H :   -0.188911
  17 H :   -0.179025
  18 H :   -0.145162
  19 H :   -0.168339
  20 H :   -0.184089
  21 H :   -0.178384
  22 H :   -0.173504
  23 H :   -0.132059

  Mayer bond orders larger than 0.100000
B(  0-S ,  1-O ) :   1.2755 B(  0-S ,  2-O ) :   1.1772 B(  0-S ,  3-N ) :   0.8864
B(  0-S ,  6-C ) :   0.9049 B(  3-N ,  4-H ) :   0.9145 B(  3-N ,  5-H ) :   0.9707
B(  6-C ,  7-N ) :   0.9593 B(  6-C , 16-H ) :   0.8830 B(  6-C , 17-H ) :   0.8258
B(  7-N ,  8-C ) :   0.7026 B(  7-N , 10-C ) :  -0.1827 B(  7-N , 11-O ) :   0.5664
B(  8-C ,  9-C ) :   0.6220 B(  8-C , 18-H ) :   0.9759 B(  8-C , 23-H ) :   0.9600
B(  9-C , 10-C ) :   1.2633 B(  9-C , 12-C ) :   0.6756 B(  9-C , 13-C ) :   0.1119
B(  9-C , 15-C ) :   0.1490 B(  9-C , 19-H ) :  -0.2228 B( 10-C , 11-O ) :   0.7331
B( 10-C , 12-C ) :  -0.4373 B( 10-C , 13-C ) :   0.1132 B( 10-C , 14-C ) :  -0.4995
B( 10-C , 15-C ) :   0.7495 B( 10-C , 19-H ) :   0.2590 B( 10-C , 21-H ) :   0.1569
B( 11-O , 15-C ) :   0.1313 B( 12-C , 13-C ) :   1.1877 B( 12-C , 14-C ) :  -0.2795
B( 12-C , 15-C ) :   0.1400 B( 12-C , 19-H ) :   1.4097 B( 13-C , 14-C ) :   1.2074
B( 13-C , 15-C ) :   0.3038 B( 13-C , 20-H ) :   0.4866 B( 13-C , 21-H ) :  -0.2037
B( 14-C , 15-C ) :   1.3139 B( 14-C , 21-H ) :   0.8113 B( 15-C , 22-H ) :   0.3520

MP2 TOTAL ENERGY:    -1043.001088925 Eh
Dispersion correction           -0.017252533
FINAL SINGLE POINT ENERGY     -1043.018341458411

DIPOLE MOMENT
-------------
                                X             Y             Z
Electronic contribution:     -3.75019       3.75566       5.81456
Nuclear contribution   :      5.50566      -5.02045      -7.67145
                        -----------------------------------------
Total Dipole Moment    :      1.75547      -1.26480      -1.85689
                        -----------------------------------------
Magnitude (a.u.)       :      2.85122
Magnitude (Debye)      :      7.24722

Rotational constants in cm-1:     0.055980     0.011081     0.010355
Rotational constants in MHz :  1678.225155   332.188249   310.447237

                             ****ORCA TERMINATED NORMALLY****
TOTAL RUN TIME: 0 days 0 hours 3 minutes 55 seconds 381 msec
