                         Program Version 5.0.3 -  RELEASE  -
|  1> !PAL8
|  2> !RI-DSD-PBEP86 D3BJ aug-cc-pVTZ aug-cc-pVTZ/C TightSCF
|  3> %maxcore 3000
|  4>
|  5>
|  6> * xyz 0 1
|  7> C -1.4933582888  0.7169155337 -0.8284831635
|  8> C -2.6197210084  0.8360558842 -1.6680743414
|  9> C -4.0324778682  1.0358793923 -1.1479431863
| 10> C -2.4702133135  0.7991528953 -3.0424296507
| 11> H -3.3438672883  0.9054282351 -3.6771119363
| 12> C -1.2079984996  0.6238344708 -3.6449339629
| 13> C -0.1019689798  0.4818497158 -2.7868506644
| 14> S  1.5158346295  0.2186946307 -3.4777996808
| 15> C -0.2424011889  0.5466966641 -1.4059904403
| 16> H  0.6366969144  0.4886764542 -0.7686445213
| 17> S -1.5263730104  0.8136869349  0.9699609312
| 18> O -0.1364803405  0.8962449643  1.3779999698
| 19> O -2.512679153  1.8082030734  1.3332442071
| 20> N -2.0690026791 -0.636475438  1.5565830288
| 21> H -1.4243188481 -1.4020472544  1.3799451316
| 22> H -3.0308220378 -0.842946105  1.3036375443
| 23> N -1.0843800314  0.6553350971 -5.0089973527
| 24> C  0.1560057514  0.2962874678 -5.6878571155
| 25> N  1.3099103489  0.8594100437 -5.0126362042
| 26> O  2.4756614674  1.0484261086 -2.7806047056
| 27> O  1.71137727 -1.2082243457 -3.6493747993
| 28> H -1.9360741647  0.6574601419 -5.5534947904
| 29> F -4.939384263  0.7505437724 -2.1008799463
| 30> F -4.2616429742  2.2864733189 -0.7575224441
| 31> F -4.3062322965  0.2130100963 -0.1160520922
| 32> H  0.301986087 -0.7889896719 -5.7211963146
| 33> H  0.1179392243  0.6835929969 -6.7069071052
| 34> H  1.3181535413  1.8790559224 -4.9739263949
| 35> *
| 36>
| 37>                          ****END OF INPUT****

CARTESIAN COORDINATES (ANGSTROEM)
---------------------------------
  C     -1.493358    0.716916   -0.828483
  C     -2.619721    0.836056   -1.668074
  C     -4.032478    1.035879   -1.147943
  C     -2.470213    0.799153   -3.042430
  H     -3.343867    0.905428   -3.677112
  C     -1.207998    0.623834   -3.644934
  C     -0.101969    0.481850   -2.786851
  S      1.515835    0.218695   -3.477800
  C     -0.242401    0.546697   -1.405990
  H      0.636697    0.488676   -0.768645
  S     -1.526373    0.813687    0.969961
  O     -0.136480    0.896245    1.378000
  O     -2.512679    1.808203    1.333244
  N     -2.069003   -0.636475    1.556583
  H     -1.424319   -1.402047    1.379945
  H     -3.030822   -0.842946    1.303638
  N     -1.084380    0.655335   -5.008997
  C      0.156006    0.296287   -5.687857
  N      1.309910    0.859410   -5.012636
  O      2.475661    1.048426   -2.780605
  O      1.711377   -1.208224   -3.649375
  H     -1.936074    0.657460   -5.553495
  F     -4.939384    0.750544   -2.100880
  F     -4.261643    2.286473   -0.757522
  F     -4.306232    0.213010   -0.116052
  H      0.301986   -0.788990   -5.721196
  H      0.117939    0.683593   -6.706907
  H      1.318154    1.879056   -4.973926

 Total Charge           Charge          ....    0
 Multiplicity           Mult            ....    1
 Number of Electrons    NEL             ....  168
 Basis Dimension        Dim             .... 1112

ORBITAL ENERGIES
----------------

  NO   OCC          E(Eh)            E(eV)
   0   2.0000     -91.060970     -2477.8950
   1   2.0000     -91.053052     -2477.6795
   2   2.0000     -25.756450      -700.8686
   3   2.0000     -25.754108      -700.8049
   4   2.0000     -25.746694      -700.6032
   5   2.0000     -20.039374      -545.2991
   6   2.0000     -20.036480      -545.2203
   7   2.0000     -20.024334      -544.8898
   8   2.0000     -20.022669      -544.8445
   9   2.0000     -15.167598      -412.7313
  10   2.0000     -15.164031      -412.6343
  11   2.0000     -15.143463      -412.0746
  12   2.0000     -11.130589      -302.8787
  13   2.0000     -10.956764      -298.1487
  14   2.0000     -10.952777      -298.0402
  15   2.0000     -10.924362      -297.2670
  16   2.0000     -10.906943      -296.7930
  17   2.0000     -10.906481      -296.7804
  18   2.0000     -10.902656      -296.6764
  19   2.0000     -10.894413      -296.4521
  20   2.0000      -8.804353      -239.5786
  21   2.0000      -8.795299      -239.3323
  22   2.0000      -6.590957      -179.3491
  23   2.0000      -6.588758      -179.2892
  24   2.0000      -6.587483      -179.2545
  25   2.0000      -6.581397      -179.0889
  26   2.0000      -6.580463      -179.0635
  27   2.0000      -6.578518      -179.0106
  28   2.0000      -1.604239       -43.6536
  29   2.0000      -1.511779       -41.1376
  30   2.0000      -1.507235       -41.0139
  31   2.0000      -1.361944       -37.0604
  32   2.0000      -1.349167       -36.7127
  33   2.0000      -1.244732       -33.8709
  34   2.0000      -1.233834       -33.5743
  35   2.0000      -1.221824       -33.2475
  36   2.0000      -1.144091       -31.1323
  37   2.0000      -1.119497       -30.4631
  38   2.0000      -1.104227       -30.0476
  39   2.0000      -1.019582       -27.7442
  40   2.0000      -0.986640       -26.8479
  41   2.0000      -0.919039       -25.0083
  42   2.0000      -0.892330       -24.2815
  43   2.0000      -0.848908       -23.1000
  44   2.0000      -0.834515       -22.7083
  45   2.0000      -0.800608       -21.7857
  46   2.0000      -0.775805       -21.1107
  47   2.0000      -0.764925       -20.8147
  48   2.0000      -0.762124       -20.7384
  49   2.0000      -0.745511       -20.2864
  50   2.0000      -0.709087       -19.2952
  51   2.0000      -0.701172       -19.0799
  52   2.0000      -0.681847       -18.5540
  53   2.0000      -0.669743       -18.2246
  54   2.0000      -0.657996       -17.9050
  55   2.0000      -0.648129       -17.6365
  56   2.0000      -0.644196       -17.5295
  57   2.0000      -0.631992       -17.1974
  58   2.0000      -0.622247       -16.9322
  59   2.0000      -0.617575       -16.8051
  60   2.0000      -0.607743       -16.5375
  61   2.0000      -0.604228       -16.4419
  62   2.0000      -0.602771       -16.4022
  63   2.0000      -0.592210       -16.1148
  64   2.0000      -0.585163       -15.9231
  65   2.0000      -0.582467       -15.8497
  66   2.0000      -0.579510       -15.7693
  67   2.0000      -0.567336       -15.4380
  68   2.0000      -0.549023       -14.9397
  69   2.0000      -0.531539       -14.4639
  70   2.0000      -0.517752       -14.0887
  71   2.0000      -0.471655       -12.8344
  72   2.0000      -0.466936       -12.7060
  73   2.0000      -0.465412       -12.6645
  74   2.0000      -0.462564       -12.5870
  75   2.0000      -0.449773       -12.2390
  76   2.0000      -0.447968       -12.1898
  77   2.0000      -0.440332       -11.9820
  78   2.0000      -0.430631       -11.7181
  79   2.0000      -0.427386       -11.6298
  80   2.0000      -0.424191       -11.5428
  81   2.0000      -0.407912       -11.0999
  82   2.0000      -0.376479       -10.2445
  83   2.0000      -0.323158        -8.7936
  84   0.0000      -0.008371        -0.2278
  85   0.0000      -0.004714        -0.1283
  86   0.0000       0.009181         0.2498
  87   0.0000       0.015261         0.4153
  88   0.0000       0.019064         0.5188

MULLIKEN ATOMIC CHARGES
-----------------------
   0 C :   -0.035718
   1 C :    0.815996
   2 C :    1.175281
   3 C :   -0.358692
   4 H :    0.398882
   5 C :    0.218326
   6 C :    0.921923
   7 S :    2.009895
   8 C :   -1.701022
   9 H :    0.345911
  10 S :    2.184725
  11 O :   -0.985675
  12 O :   -0.981540
  13 N :   -0.643143
  14 H :    0.125637
  15 H :    0.214428
  16 N :   -0.489688
  17 C :   -0.335557
  18 N :   -0.569230
  19 O :   -0.980750
  20 O :   -0.991661
  21 H :    0.011780
  22 F :   -0.373362
  23 F :   -0.400178
  24 F :   -0.418309
  25 H :    0.349409
  26 H :    0.472869
  27 H :    0.019465
Sum of atomic charges:    0.0000000

LOEWDIN ATOMIC CHARGES
----------------------
   0 C :   -0.205046
   1 C :   -0.164766
   2 C :   -1.520572
   3 C :    0.233441
   4 H :   -0.192307
   5 C :   -0.234566
   6 C :   -0.188561
   7 S :    0.155403
   8 C :    0.122160
   9 H :   -0.215604
  10 S :    0.131220
  11 O :    0.098377
  12 O :    0.079064
  13 N :    0.690341
  14 H :   -0.345898
  15 H :   -0.414063
  16 N :    0.577076
  17 C :    0.050997
  18 N :    0.422510
  19 O :    0.088572
  20 O :    0.086716
  21 H :   -0.264995
  22 F :    0.541844
  23 F :    0.544285
  24 F :    0.546588
  25 H :   -0.160360
  26 H :   -0.135076
  27 H :   -0.326777

  Mayer bond orders larger than 0.100000
B(  0-C ,  1-C ) :   0.7774 B(  0-C ,  3-C ) :  -0.1377 B(  0-C ,  5-C ) :  -0.1308
B(  0-C ,  6-C ) :   0.6455 B(  0-C ,  7-S ) :  -0.1241 B(  0-C ,  8-C ) :   1.0727
B(  0-C ,  9-H ) :   0.1244 B(  0-C , 10-S ) :   0.8712 B(  0-C , 11-O ) :   0.2726
B(  0-C , 12-O ) :   0.1531 B(  0-C , 13-N ) :   0.1606 B(  0-C , 24-F ) :   0.2394
B(  1-C ,  2-C ) :   0.8001 B(  1-C ,  3-C ) :   0.9649 B(  1-C ,  5-C ) :   0.3297
B(  1-C ,  6-C ) :  -0.1854 B(  1-C ,  8-C ) :  -0.3349 B(  1-C , 13-N ) :  -0.2139
B(  1-C , 22-F ) :   0.4061 B(  1-C , 23-F ) :   0.1328 B(  1-C , 24-F ) :  -0.1570
B(  2-C , 22-F ) :   0.6849 B(  2-C , 23-F ) :   0.7603 B(  2-C , 24-F ) :   0.7839
B(  3-C ,  4-H ) :   0.7593 B(  3-C ,  5-C ) :   0.1429 B(  3-C ,  8-C ) :  -0.2554
B(  3-C , 16-N ) :  -0.1883 B(  3-C , 22-F ) :  -0.1491 B(  3-C , 24-F ) :  -0.1026
B(  5-C ,  6-C ) :   0.9445 B(  5-C ,  7-S ) :   0.3207 B(  5-C ,  8-C ) :   0.2158
B(  5-C , 16-N ) :   0.7550 B(  5-C , 17-C ) :  -0.1116 B(  5-C , 18-N ) :   0.2012
B(  5-C , 19-O ) :  -0.1066 B(  6-C ,  7-S ) :   0.7080 B(  6-C ,  8-C ) :   0.7380
B(  6-C , 16-N ) :  -0.3409 B(  6-C , 19-O ) :   0.3532 B(  6-C , 20-O ) :  -0.2564
B(  7-S , 18-N ) :   0.9915 B(  7-S , 19-O ) :   0.9922 B(  7-S , 20-O ) :   1.3160
B(  8-C ,  9-H ) :   0.7788 B(  8-C , 20-O ) :   0.1759 B( 10-S , 11-O ) :   1.0740
B( 10-S , 12-O ) :   1.2547 B( 10-S , 13-N ) :   0.9370 B( 13-N , 14-H ) :   0.9889
B( 13-N , 15-H ) :   0.8882 B( 16-N , 17-C ) :   0.9191 B( 16-N , 21-H ) :   1.1703
B( 17-C , 18-N ) :   0.8126 B( 17-C , 25-H ) :   0.9294 B( 17-C , 26-H ) :   0.7983
B( 18-N , 20-O ) :   0.1155 B( 18-N , 27-H ) :   0.9820

MP2 TOTAL ENERGY:    -1868.864237888 Eh
Dispersion correction           -0.024690190
FINAL SINGLE POINT ENERGY     -1868.888928078276

DIPOLE MOMENT
-------------
                                X             Y             Z
Electronic contribution:    -13.06751       3.81181       8.93095
Nuclear contribution   :     11.49132      -4.57390     -12.11956
                        -----------------------------------------
Total Dipole Moment    :     -1.57619      -0.76209      -3.18861
                        -----------------------------------------
Magnitude (a.u.)       :      3.63763
Magnitude (Debye)      :      9.24613

Rotational constants in cm-1:     0.016509     0.006765     0.005252
Rotational constants in MHz :   494.929253   202.811958   157.464451

                             ****ORCA TERMINATED NORMALLY****
TOTAL RUN TIME: 0 days 0 hours 7 minutes 43 seconds 368 msec
