                         Program Version 5.0.3 -  RELEASE  -
|  1> !PAL8
|  2> !RI-DSD-PBEP86 D3BJ aug-cc-pVTZ aug-cc-pVTZ/C TightSCF
|  3> %maxcore 3000
|  4>
|  5>
|  6> * xyz 0 1
|  7> C -1.416353229  0.6845092375 -0.765743524
|  8> C -2.5453933215  0.6377548153 -1.5965784962
|  9> Cl -4.1536249863  0.7156957628 -0.9411666046
| 10> C -2.4254991167  0.558508184 -2.9715649039
| 11> H -3.3214416471  0.5463438024 -3.5845405167
| 12> C -1.1567978016  0.5027031258 -3.5795243532
| 13> C -0.0320740585  0.540459784 -2.730052252
| 14> S  1.5867145398  0.4192040566 -3.4323218662
| 15> C -0.1575137511  0.640866465 -1.3532140998
| 16> H  0.7273490996  0.6886404362 -0.7227973651
| 17> S -1.4967087551  0.7495691105  1.0226146817
| 18> O -2.3781381191 -0.3078819812  1.4717005001
| 19> O -0.1209821643  0.8660066612  1.4684863346
| 20> N -2.2310552382  2.1761157293  1.4404445911
| 21> H -3.2110907346  2.216447641  1.1728511423
| 22> H -1.6991335716  2.9943609065  1.1556705936
| 23> N -1.0467150517  0.4694352191 -4.9404995151
| 24> C  0.2202514323  0.3615688933 -5.6418966807
| 25> N  1.2058151466  1.149986685 -4.9054232629
| 26> O  2.5220776965  1.2825797982 -2.7387707118
| 27> O  1.9077029023 -0.986280193 -3.6424107698
| 28> H  0.1063004231  0.8057391644 -6.6321662672
| 29> H  2.0634051271  1.3250337167 -5.4294797877
| 30> H -1.8928735992  0.3548912875 -5.479101853
| 31> H  0.531294778 -0.6885083079 -5.7408370137
| 32> *
| 33>
| 34>                          ****END OF INPUT****

CARTESIAN COORDINATES (ANGSTROEM)
---------------------------------
  C     -1.416353    0.684509   -0.765744
  C     -2.545393    0.637755   -1.596578
  Cl    -4.153625    0.715696   -0.941167
  C     -2.425499    0.558508   -2.971565
  H     -3.321442    0.546344   -3.584541
  C     -1.156798    0.502703   -3.579524
  C     -0.032074    0.540460   -2.730052
  S      1.586715    0.419204   -3.432322
  C     -0.157514    0.640866   -1.353214
  H      0.727349    0.688640   -0.722797
  S     -1.496709    0.749569    1.022615
  O     -2.378138   -0.307882    1.471701
  O     -0.120982    0.866007    1.468486
  N     -2.231055    2.176116    1.440445
  H     -3.211091    2.216448    1.172851
  H     -1.699134    2.994361    1.155671
  N     -1.046715    0.469435   -4.940500
  C      0.220251    0.361569   -5.641897
  N      1.205815    1.149987   -4.905423
  O      2.522078    1.282580   -2.738771
  O      1.907703   -0.986280   -3.642411
  H      0.106300    0.805739   -6.632166
  H      2.063405    1.325034   -5.429480
  H     -1.892874    0.354891   -5.479102
  H      0.531295   -0.688508   -5.740837

 Total Charge           Charge          ....    0
 Multiplicity           Mult            ....    1
 Number of Electrons    NEL             ....  152
 Basis Dimension        Dim             ....  978

ORBITAL ENERGIES
----------------

  NO   OCC          E(Eh)            E(eV)
   0   2.0000    -103.646411     -2820.3622
   1   2.0000     -91.055059     -2477.7341
   2   2.0000     -91.048343     -2477.5514
   3   2.0000     -20.034088      -545.1552
   4   2.0000     -20.029896      -545.0412
   5   2.0000     -20.020200      -544.7773
   6   2.0000     -20.018398      -544.7283
   7   2.0000     -15.163235      -412.6126
   8   2.0000     -15.159218      -412.5033
   9   2.0000     -15.140849      -412.0034
  10   2.0000     -10.956901      -298.1524
  11   2.0000     -10.952513      -298.0330
  12   2.0000     -10.950050      -297.9660
  13   2.0000     -10.899028      -296.5776
  14   2.0000     -10.897375      -296.5326
  15   2.0000     -10.896013      -296.4956
  16   2.0000     -10.883393      -296.1522
  17   2.0000     -10.194294      -277.4009
  18   2.0000      -8.798950      -239.4316
  19   2.0000      -8.790645      -239.2056
  20   2.0000      -7.767490      -211.3641
  21   2.0000      -7.762912      -211.2396
  22   2.0000      -7.762620      -211.2316
  23   2.0000      -6.585537      -179.2016
  24   2.0000      -6.583177      -179.1374
  25   2.0000      -6.581966      -179.1044
  26   2.0000      -6.576857      -178.9654
  27   2.0000      -6.575658      -178.9328
  28   2.0000      -6.573875      -178.8842
  29   2.0000      -1.354308       -36.8526
  30   2.0000      -1.344139       -36.5759
  31   2.0000      -1.235887       -33.6302
  32   2.0000      -1.228358       -33.4253
  33   2.0000      -1.216784       -33.1104
  34   2.0000      -1.140095       -31.0236
  35   2.0000      -1.120419       -30.4881
  36   2.0000      -1.111359       -30.2416
  37   2.0000      -1.060205       -28.8496
  38   2.0000      -0.982988       -26.7485
  39   2.0000      -0.965715       -26.2784
  40   2.0000      -0.887150       -24.1406
  41   2.0000      -0.843382       -22.9496
  42   2.0000      -0.828158       -22.5353
  43   2.0000      -0.791296       -21.5323
  44   2.0000      -0.741921       -20.1887
  45   2.0000      -0.710825       -19.3425
  46   2.0000      -0.699213       -19.0266
  47   2.0000      -0.672643       -18.3035
  48   2.0000      -0.664360       -18.0781
  49   2.0000      -0.650066       -17.6892
  50   2.0000      -0.645537       -17.5660
  51   2.0000      -0.623158       -16.9570
  52   2.0000      -0.615637       -16.7523
  53   2.0000      -0.605486       -16.4761
  54   2.0000      -0.596980       -16.2446
  55   2.0000      -0.589979       -16.0541
  56   2.0000      -0.573704       -15.6113
  57   2.0000      -0.566297       -15.4097
  58   2.0000      -0.555895       -15.1267
  59   2.0000      -0.541531       -14.7358
  60   2.0000      -0.516584       -14.0570
  61   2.0000      -0.488717       -13.2987
  62   2.0000      -0.477131       -12.9834
  63   2.0000      -0.463959       -12.6250
  64   2.0000      -0.457424       -12.4471
  65   2.0000      -0.450844       -12.2681
  66   2.0000      -0.446446       -12.1484
  67   2.0000      -0.443100       -12.0574
  68   2.0000      -0.437649       -11.9090
  69   2.0000      -0.431321       -11.7368
  70   2.0000      -0.421544       -11.4708
  71   2.0000      -0.417921       -11.3722
  72   2.0000      -0.408455       -11.1146
  73   2.0000      -0.403309       -10.9746
  74   2.0000      -0.354146        -9.6368
  75   2.0000      -0.314704        -8.5635
  76   0.0000      -0.003312        -0.0901
  77   0.0000       0.006085         0.1656
  78   0.0000       0.012598         0.3428
  79   0.0000       0.016585         0.4513
  80   0.0000       0.019445         0.5291

MULLIKEN ATOMIC CHARGES
-----------------------
   0 C :   -0.202069
   1 C :    0.715830
   2 Cl:   -0.500700
   3 C :   -0.332115
   4 H :    0.512353
   5 C :    0.654718
   6 C :    0.872321
   7 S :    1.986188
   8 C :   -1.421463
   9 H :    0.334049
  10 S :    2.172519
  11 O :   -0.970406
  12 O :   -0.948772
  13 N :   -0.635815
  14 H :    0.149553
  15 H :    0.141925
  16 N :   -0.463457
  17 C :   -0.427104
  18 N :   -0.474087
  19 O :   -0.974829
  20 O :   -0.997107
  21 H :    0.456907
  22 H :   -0.004666
  23 H :    0.015546
  24 H :    0.340682
Sum of atomic charges:   -0.0000000

LOEWDIN ATOMIC CHARGES
----------------------
   0 C :   -0.313015
   1 C :   -0.781791
   2 Cl:    1.067506
   3 C :    0.138291
   4 H :   -0.194443
   5 C :   -0.250417
   6 C :   -0.204370
   7 S :    0.156941
   8 C :    0.112325
   9 H :   -0.209362
  10 S :    0.093843
  11 O :    0.056278
  12 O :    0.091567
  13 N :    0.675865
  14 H :   -0.408985
  15 H :   -0.349173
  16 N :    0.570381
  17 C :    0.047585
  18 N :    0.428829
  19 O :    0.081094
  20 O :    0.075460
  21 H :   -0.136683
  22 H :   -0.328267
  23 H :   -0.262039
  24 H :   -0.157420

  Mayer bond orders larger than 0.100000
B(  0-C ,  1-C ) :   1.3445 B(  0-C ,  2-Cl) :   0.6784 B(  0-C ,  3-C ) :  -0.2832
B(  0-C ,  5-C ) :  -0.1761 B(  0-C ,  6-C ) :   0.5593 B(  0-C ,  8-C ) :   1.0526
B(  0-C , 10-S ) :   0.7990 B(  0-C , 11-O ) :   0.2449 B(  0-C , 12-O ) :   0.2095
B(  0-C , 13-N ) :   0.1250 B(  0-C , 19-O ) :  -0.1149 B(  1-C ,  3-C ) :   1.4269
B(  3-C ,  4-H ) :   0.5911 B(  3-C ,  5-C ) :   0.3125 B(  3-C ,  8-C ) :  -0.1982
B(  3-C , 16-N ) :  -0.2120 B(  4-H ,  6-C ) :   0.1633 B(  5-C ,  6-C ) :   0.8319
B(  5-C ,  7-S ) :   0.2631 B(  5-C , 16-N ) :   0.8021 B(  5-C , 18-N ) :  -0.1336
B(  6-C ,  7-S ) :   0.7976 B(  6-C ,  8-C ) :   0.2655 B(  6-C , 16-N ) :  -0.2896
B(  6-C , 18-N ) :   0.1006 B(  6-C , 19-O ) :   0.3849 B(  7-S , 18-N ) :   1.0521
B(  7-S , 19-O ) :   0.9907 B(  7-S , 20-O ) :   1.3154 B(  8-C ,  9-H ) :   0.7859
B( 10-S , 11-O ) :   1.2868 B( 10-S , 12-O ) :   1.2498 B( 10-S , 13-N ) :   0.8910
B( 13-N , 14-H ) :   0.9391 B( 13-N , 15-H ) :   0.9619 B( 16-N , 17-C ) :   0.9383
B( 16-N , 23-H ) :   1.1897 B( 17-C , 18-N ) :   0.8742 B( 17-C , 21-H ) :   0.8160
B( 17-C , 24-H ) :   0.9515 B( 18-N , 20-O ) :   0.1241 B( 18-N , 22-H ) :   0.9712

MP2 TOTAL ENERGY:    -1991.424147841 Eh
Dispersion correction           -0.023831963
FINAL SINGLE POINT ENERGY     -1991.447979804049

DIPOLE MOMENT
-------------
                                X             Y             Z
Electronic contribution:     -6.00696      -1.55390       7.84019
Nuclear contribution   :      4.27943       2.92872     -11.40303
                        -----------------------------------------
Total Dipole Moment    :     -1.72753       1.37483      -3.56285
                        -----------------------------------------
Magnitude (a.u.)       :      4.19147
Magnitude (Debye)      :     10.65386

Rotational constants in cm-1:     0.022077     0.007833     0.006236
Rotational constants in MHz :   661.856610   234.838936   186.944303

                             ****ORCA TERMINATED NORMALLY****
TOTAL RUN TIME: 0 days 0 hours 5 minutes 40 seconds 465 msec
