                         Program Version 5.0.3 -  RELEASE  -
|  1> !PAL8
|  2> !RI-DSD-PBEP86 D3BJ aug-cc-pVTZ aug-cc-pVTZ/C TightSCF
|  3> %maxcore 5000
|  4>
|  5> * xyz 0 1
|  6> C -1.2954205985  0.657675581 -0.921288569
|  7> C -2.4663213836  0.9675805104 -1.6358835653
|  8> Cl -4.0249815711  1.1874736377 -0.9122494915
|  9> C -2.4449089537  1.1141338852 -3.0239667232
| 10> H -3.3624961453  1.3510657414 -3.5499664218
| 11> C -1.2560592957  0.9505625263 -3.7149316069
| 12> Cl -1.23484806  1.1329506794 -5.4374412992
| 13> C -0.0786735603  0.6402802984 -3.0475438439
| 14> H  0.8520149334  0.509083923 -3.5872075695
| 15> C -0.1136318841  0.493495303 -1.6674978324
| 16> Cl  1.4141876595  0.1054456464 -0.9251421796
| 17> S -1.2434764631  0.4054212087  0.8838476024
| 18> O -2.5297695692  0.7633738626  1.4347406913
| 19> O -0.6474205967 -0.8960003147  1.086413101
| 20> N -0.1894634352  1.5275317733  1.4835973386
| 21> H -0.5397539658  2.4796140038  1.4282661443
| 22> H  0.7735748891  1.4158407344  1.1815762247
| 23> *
| 24>
| 25>                          ****END OF INPUT****

CARTESIAN COORDINATES (ANGSTROEM)
---------------------------------
  C     -1.295421    0.657676   -0.921289
  C     -2.466321    0.967581   -1.635884
  Cl    -4.024982    1.187474   -0.912249
  C     -2.444909    1.114134   -3.023967
  H     -3.362496    1.351066   -3.549966
  C     -1.256059    0.950563   -3.714932
  Cl    -1.234848    1.132951   -5.437441
  C     -0.078674    0.640280   -3.047544
  H      0.852015    0.509084   -3.587208
  C     -0.113632    0.493495   -1.667498
  Cl     1.414188    0.105446   -0.925142
  S     -1.243476    0.405421    0.883848
  O     -2.529770    0.763374    1.434741
  O     -0.647421   -0.896000    1.086413
  N     -0.189463    1.527532    1.483597
  H     -0.539754    2.479614    1.428266
  H      0.773575    1.415841    1.181576

 Total Charge           Charge          ....    0
 Multiplicity           Mult            ....    1
 Number of Electrons    NEL             ....  130
 Basis Dimension        Dim             ....  706

ORBITAL ENERGIES
----------------

  NO   OCC          E(Eh)            E(eV)
   0   2.0000    -103.648947     -2820.4312
   1   2.0000    -103.645119     -2820.3271
   2   2.0000    -103.632847     -2819.9931
   3   2.0000     -91.059341     -2477.8506
   4   2.0000     -20.027121      -544.9657
   5   2.0000     -20.027037      -544.9634
   6   2.0000     -15.147522      -412.1850
   7   2.0000     -10.960064      -298.2385
   8   2.0000     -10.958111      -298.1853
   9   2.0000     -10.949872      -297.9612
  10   2.0000     -10.921695      -297.1944
  11   2.0000     -10.891762      -296.3799
  12   2.0000     -10.889108      -296.3077
  13   2.0000     -10.197010      -277.4748
  14   2.0000     -10.193021      -277.3662
  15   2.0000     -10.180789      -277.0333
  16   2.0000      -8.801005      -239.4875
  17   2.0000      -7.770220      -211.4384
  18   2.0000      -7.766166      -211.3281
  19   2.0000      -7.765570      -211.3119
  20   2.0000      -7.765307      -211.3047
  21   2.0000      -7.761598      -211.2038
  22   2.0000      -7.761458      -211.2000
  23   2.0000      -7.754068      -210.9989
  24   2.0000      -7.749263      -210.8682
  25   2.0000      -7.748950      -210.8596
  26   2.0000      -6.587267      -179.2487
  27   2.0000      -6.586130      -179.2177
  28   2.0000      -6.584173      -179.1645
  29   2.0000      -1.354503       -36.8579
  30   2.0000      -1.238126       -33.6911
  31   2.0000      -1.148674       -31.2570
  32   2.0000      -1.123735       -30.5784
  33   2.0000      -1.093122       -29.7454
  34   2.0000      -1.087835       -29.6015
  35   2.0000      -1.015787       -27.6410
  36   2.0000      -0.959729       -26.1155
  37   2.0000      -0.940326       -25.5876
  38   2.0000      -0.827191       -22.5090
  39   2.0000      -0.787357       -21.4251
  40   2.0000      -0.768033       -20.8992
  41   2.0000      -0.698511       -19.0074
  42   2.0000      -0.677069       -18.4240
  43   2.0000      -0.659226       -17.9384
  44   2.0000      -0.638370       -17.3709
  45   2.0000      -0.617476       -16.8024
  46   2.0000      -0.597453       -16.2575
  47   2.0000      -0.579365       -15.7653
  48   2.0000      -0.571033       -15.5386
  49   2.0000      -0.560176       -15.2432
  50   2.0000      -0.531616       -14.4660
  51   2.0000      -0.516019       -14.0416
  52   2.0000      -0.496465       -13.5095
  53   2.0000      -0.487262       -13.2591
  54   2.0000      -0.472482       -12.8569
  55   2.0000      -0.464760       -12.6468
  56   2.0000      -0.451123       -12.2757
  57   2.0000      -0.443990       -12.0816
  58   2.0000      -0.438562       -11.9339
  59   2.0000      -0.432558       -11.7705
  60   2.0000      -0.422317       -11.4918
  61   2.0000      -0.414727       -11.2853
  62   2.0000      -0.402395       -10.9497
  63   2.0000      -0.350012        -9.5243
  64   2.0000      -0.342775        -9.3274
  65   0.0000      -0.002035        -0.0554
  66   0.0000       0.008757         0.2383
  67   0.0000       0.010325         0.2810
  68   0.0000       0.021933         0.5968
  69   0.0000       0.025050         0.6816

MULLIKEN ATOMIC CHARGES
-----------------------
   0 C :   -0.169382
   1 C :    0.449995
   2 Cl:   -0.348680
   3 C :   -0.840050
   4 H :    0.577579
   5 C :    0.802995
   6 Cl:   -0.411384
   7 C :   -0.832353
   8 H :    0.589731
   9 C :    0.588397
  10 Cl:   -0.433835
  11 S :    2.169682
  12 O :   -0.896108
  13 O :   -0.947671
  14 N :   -0.589000
  15 H :    0.143220
  16 H :    0.146863
Sum of atomic charges:   -0.0000000

LOEWDIN ATOMIC CHARGES
----------------------
   0 C :   -0.355919
   1 C :   -0.808306
   2 Cl:    1.041553
   3 C :   -0.000783
   4 H :   -0.220664
   5 C :   -0.795378
   6 Cl:    1.023678
   7 C :    0.004659
   8 H :   -0.216835
   9 C :   -0.798266
  10 Cl:    1.084950
  11 S :    0.065624
  12 O :    0.040671
  13 O :    0.056282
  14 N :    0.668892
  15 H :   -0.347277
  16 H :   -0.442882

  Mayer bond orders larger than 0.100000
B(  0-C ,  1-C ) :   1.4090 B(  0-C ,  2-Cl) :   0.1566 B(  0-C ,  3-C ) :   0.1111
B(  0-C ,  9-C ) :   1.7321 B(  0-C , 10-Cl) :   0.3910 B(  0-C , 11-S ) :   0.7052
B(  0-C , 13-O ) :   0.2060 B(  0-C , 14-N ) :   0.1597 B(  1-C ,  2-Cl) :   0.6260
B(  1-C ,  3-C ) :   1.0247 B(  1-C ,  7-C ) :  -0.1292 B(  1-C , 12-O ) :   0.1048
B(  3-C ,  4-H ) :   0.6189 B(  3-C ,  5-C ) :   0.9632 B(  3-C ,  6-Cl) :   0.1297
B(  3-C ,  7-C ) :   0.3253 B(  5-C ,  6-Cl) :   0.7720 B(  5-C ,  7-C ) :   0.8194
B(  7-C ,  8-H ) :   0.5579 B(  7-C ,  9-C ) :   1.0825 B(  9-C , 10-Cl) :   0.3206
B(  9-C , 11-S ) :   0.1633 B(  9-C , 14-N ) :  -0.1381 B( 11-S , 12-O ) :   1.2674
B( 11-S , 13-O ) :   1.2892 B( 11-S , 14-N ) :   0.9322 B( 14-N , 15-H ) :   0.9666
B( 14-N , 16-H ) :   0.9495

MP2 TOTAL ENERGY:    -2213.233780791 Eh
Dispersion correction           -0.017762730
FINAL SINGLE POINT ENERGY     -2213.251543520863

DIPOLE MOMENT
-------------
                                X             Y             Z
Electronic contribution:     -1.81048      -1.03549      -6.52308
Nuclear contribution   :      2.68075       2.32555       5.18595
                        -----------------------------------------
Total Dipole Moment    :      0.87027       1.29006      -1.33714
                        -----------------------------------------
Magnitude (a.u.)       :      2.05172
Magnitude (Debye)      :      5.21506

Rotational constants in cm-1:     0.023124     0.012704     0.008647
Rotational constants in MHz :   693.244912   380.848301   259.234655

                             ****ORCA TERMINATED NORMALLY****
TOTAL RUN TIME: 0 days 0 hours 2 minutes 49 seconds 834 msec
