                         Program Version 5.0.3 -  RELEASE  -
|  1> !PAL8
|  2> !RI-DSD-PBEP86 D3BJ aug-cc-pVTZ aug-cc-pVTZ/C TightSCF
|  3> %maxcore 3000
|  4>
|  5>
|  6> * xyz 0 1
|  7> C -1.53386057  1.0615553434 -1.1589819564
|  8> C -2.8042740295  0.9050741608 -1.7344982744
|  9> C -2.9337449089  0.1120395179 -2.8830095318
| 10> C -1.8226812867 -0.5189217962 -3.4369918493
| 11> C -0.5855900417 -0.3586382406 -2.8317055866
| 12> C -0.420383399  0.4323270535 -1.7001264821
| 13> S -1.3614159217  2.1008071706  0.3038081606
| 14> O -1.6843142964  3.4595971711 -0.088277087
| 15> O -2.0268928165  1.4249452488  1.4028287748
| 16> N  0.2761044749  2.022911988  0.5999107084
| 17> H  0.7198749374  2.9257459489  0.4461821708
| 18> H  0.4515733659  1.6582949843  1.5334714306
| 19> Cl -4.1860003175  1.6706658217 -1.0566965665
| 20> Cl -4.4682415013 -0.0998085662 -3.6464676445
| 21> S  0.8355770486 -1.207566311 -3.515163563
| 22> H -1.9244342598 -1.1101323091 -4.3422166581
| 23> H  0.5603220059  0.5755088461 -1.2596693881
| 24> O  0.5268045254 -1.4898751544 -4.9032840774
| 25> O  2.0083431248 -0.4714991118 -3.0848071011
| 26> N  0.9267271935 -2.6831659944 -2.7629361734
| 27> H  0.14932824 -3.3005986403 -2.9807382903
| 28> H  1.1307894328 -2.622902131 -1.7691400152
| 29> *
| 30>
| 31>                          ****END OF INPUT****

CARTESIAN COORDINATES (ANGSTROEM)
---------------------------------
  C     -1.533861    1.061555   -1.158982
  C     -2.804274    0.905074   -1.734498
  C     -2.933745    0.112040   -2.883010
  C     -1.822681   -0.518922   -3.436992
  C     -0.585590   -0.358638   -2.831706
  C     -0.420383    0.432327   -1.700126
  S     -1.361416    2.100807    0.303808
  O     -1.684314    3.459597   -0.088277
  O     -2.026893    1.424945    1.402829
  N      0.276104    2.022912    0.599911
  H      0.719875    2.925746    0.446182
  H      0.451573    1.658295    1.533471
  Cl    -4.186000    1.670666   -1.056697
  Cl    -4.468242   -0.099809   -3.646468
  S      0.835577   -1.207566   -3.515164
  H     -1.924434   -1.110132   -4.342217
  H      0.560322    0.575509   -1.259669
  O      0.526805   -1.489875   -4.903284
  O      2.008343   -0.471499   -3.084807
  N      0.926727   -2.683166   -2.762936
  H      0.149328   -3.300599   -2.980738
  H      1.130789   -2.622902   -1.769140

 Total Charge           Charge          ....    0
 Multiplicity           Mult            ....    1
 Number of Electrons    NEL             ....  154
 Basis Dimension        Dim             ....  890

ORBITAL ENERGIES
----------------

  NO   OCC          E(Eh)            E(eV)
   0   2.0000    -103.644692     -2820.3154
   1   2.0000    -103.644685     -2820.3153
   2   2.0000     -91.067823     -2478.0815
   3   2.0000     -91.063478     -2477.9632
   4   2.0000     -20.038875      -545.2855
   5   2.0000     -20.038319      -545.2704
   6   2.0000     -20.037206      -545.2401
   7   2.0000     -20.036937      -545.2328
   8   2.0000     -15.159097      -412.5000
   9   2.0000     -15.157634      -412.4602
  10   2.0000     -10.965404      -298.3838
  11   2.0000     -10.953699      -298.0653
  12   2.0000     -10.924578      -297.2729
  13   2.0000     -10.914357      -296.9947
  14   2.0000     -10.906359      -296.7771
  15   2.0000     -10.904953      -296.7389
  16   2.0000     -10.192496      -277.3519
  17   2.0000     -10.192453      -277.3507
  18   2.0000      -8.810405      -239.7433
  19   2.0000      -8.806142      -239.6273
  20   2.0000      -7.765833      -211.3191
  21   2.0000      -7.765729      -211.3162
  22   2.0000      -7.761034      -211.1885
  23   2.0000      -7.760948      -211.1861
  24   2.0000      -7.760825      -211.1828
  25   2.0000      -7.760548      -211.1753
  26   2.0000      -6.596719      -179.5059
  27   2.0000      -6.595185      -179.4641
  28   2.0000      -6.593455      -179.4170
  29   2.0000      -6.592259      -179.3845
  30   2.0000      -6.591182      -179.3552
  31   2.0000      -6.589360      -179.3056
  32   2.0000      -1.362052       -37.0633
  33   2.0000      -1.360613       -37.0242
  34   2.0000      -1.246138       -33.9091
  35   2.0000      -1.245766       -33.8990
  36   2.0000      -1.153549       -31.3897
  37   2.0000      -1.135001       -30.8849
  38   2.0000      -1.131071       -30.7780
  39   2.0000      -1.073955       -29.2238
  40   2.0000      -1.071959       -29.1695
  41   2.0000      -0.986577       -26.8461
  42   2.0000      -0.949429       -25.8353
  43   2.0000      -0.861577       -23.4447
  44   2.0000      -0.843930       -22.9645
  45   2.0000      -0.785080       -21.3631
  46   2.0000      -0.761603       -20.7243
  47   2.0000      -0.705104       -19.1869
  48   2.0000      -0.683158       -18.5897
  49   2.0000      -0.680765       -18.5246
  50   2.0000      -0.671510       -18.2727
  51   2.0000      -0.657490       -17.8912
  52   2.0000      -0.651632       -17.7318
  53   2.0000      -0.633454       -17.2372
  54   2.0000      -0.622855       -16.9487
  55   2.0000      -0.590441       -16.0667
  56   2.0000      -0.587384       -15.9835
  57   2.0000      -0.583596       -15.8805
  58   2.0000      -0.562169       -15.2974
  59   2.0000      -0.544659       -14.8209
  60   2.0000      -0.530343       -14.4314
  61   2.0000      -0.497497       -13.5376
  62   2.0000      -0.483149       -13.1471
  63   2.0000      -0.480563       -13.0768
  64   2.0000      -0.475537       -12.9400
  65   2.0000      -0.464844       -12.6490
  66   2.0000      -0.456474       -12.4213
  67   2.0000      -0.453891       -12.3510
  68   2.0000      -0.450071       -12.2471
  69   2.0000      -0.446290       -12.1442
  70   2.0000      -0.440375       -11.9832
  71   2.0000      -0.439746       -11.9661
  72   2.0000      -0.434418       -11.8211
  73   2.0000      -0.419752       -11.4220
  74   2.0000      -0.412186       -11.2162
  75   2.0000      -0.365556        -9.9473
  76   2.0000      -0.347074        -9.4444
  77   0.0000      -0.013583        -0.3696
  78   0.0000       0.001279         0.0348
  79   0.0000       0.003021         0.0822
  80   0.0000       0.013027         0.3545
  81   0.0000       0.025977         0.7069

MULLIKEN ATOMIC CHARGES
-----------------------
   0 C :    0.379858
   1 C :    0.318041
   2 C :    0.630145
   3 C :   -0.775889
   4 C :    0.592179
   5 C :   -0.752715
   6 S :    1.901004
   7 O :   -0.922944
   8 O :   -0.932372
   9 N :   -0.494308
  10 H :    0.113602
  11 H :    0.108317
  12 Cl:   -0.417136
  13 Cl:   -0.442305
  14 S :    2.123003
  15 H :    0.417263
  16 H :    0.358991
  17 O :   -0.957766
  18 O :   -0.958175
  19 N :   -0.586942
  20 H :    0.150086
  21 H :    0.148062
Sum of atomic charges:   -0.0000000

LOEWDIN ATOMIC CHARGES
----------------------
   0 C :   -0.315875
   1 C :   -0.888905
   2 C :   -0.860119
   3 C :    0.065259
   4 C :   -0.250145
   5 C :    0.112136
   6 S :    0.098547
   7 O :    0.059986
   8 O :    0.059760
   9 N :    0.693948
  10 H :   -0.343499
  11 H :   -0.349249
  12 Cl:    1.062615
  13 Cl:    1.013320
  14 S :    0.127515
  15 H :   -0.205735
  16 H :   -0.235000
  17 O :    0.081315
  18 O :    0.080871
  19 N :    0.689049
  20 H :   -0.347642
  21 H :   -0.348152

  Mayer bond orders larger than 0.100000
B(  0-C ,  1-C ) :   1.5047 B(  0-C ,  2-C ) :   0.1554 B(  0-C ,  3-C ) :  -0.3147
B(  0-C ,  4-C ) :   0.2993 B(  0-C ,  5-C ) :   0.6614 B(  0-C ,  6-S ) :   0.7295
B(  0-C ,  8-O ) :   0.1775 B(  0-C , 12-Cl) :   0.5603 B(  0-C , 16-H ) :   0.1121
B(  1-C ,  2-C ) :   1.1862 B(  1-C ,  3-C ) :   0.2542 B(  1-C ,  5-C ) :   0.2623
B(  1-C ,  6-S ) :   0.2862 B(  1-C , 13-Cl) :   0.3755 B(  2-C ,  3-C ) :   1.0102
B(  2-C ,  4-C ) :   0.1809 B(  2-C , 13-Cl) :   0.3710 B(  2-C , 17-O ) :  -0.1253
B(  3-C ,  4-C ) :   0.5063 B(  3-C ,  5-C ) :   0.3497 B(  3-C , 15-H ) :   0.7931
B(  3-C , 18-O ) :  -0.1275 B(  4-C ,  5-C ) :   0.3066 B(  4-C , 13-Cl) :  -0.1627
B(  4-C , 14-S ) :   0.9507 B(  4-C , 17-O ) :   0.3388 B(  4-C , 18-O ) :   0.3324
B(  5-C , 14-S ) :  -0.1165 B(  5-C , 16-H ) :   0.8080 B(  5-C , 19-N ) :  -0.1152
B(  6-S ,  7-O ) :   1.4243 B(  6-S ,  8-O ) :   1.3692 B(  6-S ,  9-N ) :   0.8880
B(  9-N , 10-H ) :   1.0042 B(  9-N , 11-H ) :   1.0068 B( 14-S , 17-O ) :   1.1870
B( 14-S , 18-O ) :   1.1860 B( 14-S , 19-N ) :   0.9419 B( 19-N , 20-H ) :   0.9538
B( 19-N , 21-H ) :   0.9571

MP2 TOTAL ENERGY:    -2357.397099765 Eh
Dispersion correction           -0.022060691
FINAL SINGLE POINT ENERGY     -2357.419160456010

DIPOLE MOMENT
-------------
                                X             Y             Z
Electronic contribution:    -16.70015       4.14101      -3.09276
Nuclear contribution   :     16.96093      -5.20542       4.06358
                        -----------------------------------------
Total Dipole Moment    :      0.26078      -1.06441       0.97082
                        -----------------------------------------
Magnitude (a.u.)       :      1.46406
Magnitude (Debye)      :      3.72134

Rotational constants in cm-1:     0.015043     0.009015     0.006067
Rotational constants in MHz :   450.979387   270.258018   181.886502

                             ****ORCA TERMINATED NORMALLY****
TOTAL RUN TIME: 0 days 0 hours 4 minutes 49 seconds 83 msec
