                         Program Version 5.0.3 -  RELEASE  -
|  1> !PAL8
|  2> !RI-DSD-PBEP86 D3BJ aug-cc-pVTZ aug-cc-pVTZ/C TightSCF
|  3> %maxcore 3000
|  4>
|  5>
|  6> * xyz 0 1
|  7> C -1.5635669642  1.0340016309 -0.822607703
|  8> C -2.6941419035  0.7739916098 -1.609477233
|  9> Cl -4.2981852063  0.8207666285 -0.9400445428
| 10> C -2.5762111935  0.4435531907 -2.9501025808
| 11> H -3.4695659836  0.2395747332 -3.5323079661
| 12> C -1.3061144509  0.3731557218 -3.5368235759
| 13> C -0.1703475952  0.6346410593 -2.7547142108
| 14> C  1.1777962486  0.5944065805 -3.3755964011
| 15> C -0.3058183103  0.9601399342 -1.411873022
| 16> S -1.649740273  1.5200884806  0.9007010899
| 17> O -0.2747703253  1.6064387661  1.3546530052
| 18> O -2.579065386  2.6258123786  1.0098120464
| 19> N -2.3251481013  0.2600610418  1.7436220229
| 20> H -1.7535342949 -0.5803632128  1.7207358357
| 21> H -3.2984190734  0.0927775611  1.5015454695
| 22> N -1.1577410107  0.0909606865 -4.8773170692
| 23> C  0.1016488742 -0.3377235588 -5.4324761957
| 24> N  1.1834858441  0.2895766469 -4.7226225561
| 25> H -1.9884757713 -0.1586243638 -5.3968192762
| 26> O  2.201034743  0.8676401783 -2.7807697911
| 27> H  0.5844079885  1.1679807848 -0.8243792692
| 28> H  2.1099344785  0.205580374 -5.1272049743
| 29> C  0.2107344422 -1.8862771088 -5.4723671901
| 30> H  0.1433262509 -0.0204559427 -6.4818440036
| 31> H -0.6276672615 -2.3058936191 -6.0300704748
| 32> Cl  0.1741797233 -2.5945828477 -3.8481161898
| 33> Cl  1.6942275115 -2.3416693339 -6.3521932442
| 34> *
| 35>
| 36>                          ****END OF INPUT****

CARTESIAN COORDINATES (ANGSTROEM)
---------------------------------
  C     -1.563567    1.034002   -0.822608
  C     -2.694142    0.773992   -1.609477
  Cl    -4.298185    0.820767   -0.940045
  C     -2.576211    0.443553   -2.950103
  H     -3.469566    0.239575   -3.532308
  C     -1.306114    0.373156   -3.536824
  C     -0.170348    0.634641   -2.754714
  C      1.177796    0.594407   -3.375596
  C     -0.305818    0.960140   -1.411873
  S     -1.649740    1.520088    0.900701
  O     -0.274770    1.606439    1.354653
  O     -2.579065    2.625812    1.009812
  N     -2.325148    0.260061    1.743622
  H     -1.753534   -0.580363    1.720736
  H     -3.298419    0.092778    1.501545
  N     -1.157741    0.090961   -4.877317
  C      0.101649   -0.337724   -5.432476
  N      1.183486    0.289577   -4.722623
  H     -1.988476   -0.158624   -5.396819
  O      2.201035    0.867640   -2.780770
  H      0.584408    1.167981   -0.824379
  H      2.109934    0.205580   -5.127205
  C      0.210734   -1.886277   -5.472367
  H      0.143326   -0.020456   -6.481844
  H     -0.627667   -2.305894   -6.030070
  Cl     0.174180   -2.594583   -3.848116
  Cl     1.694228   -2.341669   -6.352193

 Total Charge           Charge          ....    0
 Multiplicity           Mult            ....    1
 Number of Electrons    NEL             ....  174
 Basis Dimension        Dim             .... 1074

ORBITAL ENERGIES
----------------

  NO   OCC          E(Eh)            E(eV)
   0   2.0000    -103.644168     -2820.3012
   1   2.0000    -103.643786     -2820.2908
   2   2.0000    -103.641566     -2820.2304
   3   2.0000     -91.044298     -2477.4413
   4   2.0000     -20.016270      -544.6704
   5   2.0000     -20.014784      -544.6300
   6   2.0000     -20.007033      -544.4190
   7   2.0000     -15.166412      -412.6991
   8   2.0000     -15.149617      -412.2420
   9   2.0000     -15.137573      -411.9143
  10   2.0000     -10.994494      -299.1754
  11   2.0000     -10.975126      -298.6484
  12   2.0000     -10.972106      -298.5662
  13   2.0000     -10.953043      -298.0474
  14   2.0000     -10.940673      -297.7108
  15   2.0000     -10.891435      -296.3710
  16   2.0000     -10.885477      -296.2089
  17   2.0000     -10.878935      -296.0309
  18   2.0000     -10.872502      -295.8558
  19   2.0000     -10.192442      -277.3504
  20   2.0000     -10.191613      -277.3279
  21   2.0000     -10.189894      -277.2811
  22   2.0000      -8.786629      -239.0963
  23   2.0000      -7.765633      -211.3136
  24   2.0000      -7.764792      -211.2907
  25   2.0000      -7.763087      -211.2443
  26   2.0000      -7.760852      -211.1835
  27   2.0000      -7.760779      -211.1815
  28   2.0000      -7.760243      -211.1670
  29   2.0000      -7.759969      -211.1595
  30   2.0000      -7.758300      -211.1141
  31   2.0000      -7.758211      -211.1117
  32   2.0000      -6.572813      -178.8553
  33   2.0000      -6.571634      -178.8233
  34   2.0000      -6.569857      -178.7749
  35   2.0000      -1.340198       -36.4687
  36   2.0000      -1.285879       -34.9906
  37   2.0000      -1.226536       -33.3757
  38   2.0000      -1.224408       -33.3178
  39   2.0000      -1.142876       -31.0992
  40   2.0000      -1.117607       -30.4116
  41   2.0000      -1.111611       -30.2485
  42   2.0000      -1.107690       -30.1418
  43   2.0000      -1.053272       -28.6610
  44   2.0000      -1.026986       -27.9457
  45   2.0000      -0.982339       -26.7308
  46   2.0000      -0.956920       -26.0391
  47   2.0000      -0.910045       -24.7636
  48   2.0000      -0.831074       -22.6147
  49   2.0000      -0.822899       -22.3922
  50   2.0000      -0.805389       -21.9158
  51   2.0000      -0.780256       -21.2318
  52   2.0000      -0.731224       -19.8976
  53   2.0000      -0.700276       -19.0555
  54   2.0000      -0.697484       -18.9795
  55   2.0000      -0.665326       -18.1044
  56   2.0000      -0.660708       -17.9788
  57   2.0000      -0.650479       -17.7004
  58   2.0000      -0.632619       -17.2144
  59   2.0000      -0.619022       -16.8444
  60   2.0000      -0.609958       -16.5978
  61   2.0000      -0.596437       -16.2299
  62   2.0000      -0.591796       -16.1036
  63   2.0000      -0.584842       -15.9144
  64   2.0000      -0.563973       -15.3465
  65   2.0000      -0.557256       -15.1637
  66   2.0000      -0.554780       -15.0963
  67   2.0000      -0.548385       -14.9223
  68   2.0000      -0.530475       -14.4350
  69   2.0000      -0.524554       -14.2738
  70   2.0000      -0.496303       -13.5051
  71   2.0000      -0.485340       -13.2068
  72   2.0000      -0.460228       -12.5235
  73   2.0000      -0.456563       -12.4237
  74   2.0000      -0.447889       -12.1877
  75   2.0000      -0.444124       -12.0852
  76   2.0000      -0.439878       -11.9697
  77   2.0000      -0.435803       -11.8588
  78   2.0000      -0.430361       -11.7107
  79   2.0000      -0.423370       -11.5205
  80   2.0000      -0.417181       -11.3521
  81   2.0000      -0.412464       -11.2237
  82   2.0000      -0.408954       -11.1282
  83   2.0000      -0.391410       -10.6508
  84   2.0000      -0.378437       -10.2978
  85   2.0000      -0.346789        -9.4366
  86   2.0000      -0.312782        -8.5112
  87   0.0000      -0.006357        -0.1730
  88   0.0000      -0.001556        -0.0424
  89   0.0000       0.013760         0.3744
  90   0.0000       0.016687         0.4541
  91   0.0000       0.020076         0.5463

MULLIKEN ATOMIC CHARGES
-----------------------
   0 C :   -0.337226
   1 C :    0.849954
   2 Cl:   -0.515192
   3 C :   -0.721632
   4 H :    0.427766
   5 C :    1.037996
   6 C :    1.429359
   7 C :    0.346029
   8 C :   -1.173087
   9 S :    2.157432
  10 O :   -0.962881
  11 O :   -0.978840
  12 N :   -0.611239
  13 H :    0.140017
  14 H :    0.141370
  15 N :   -0.638516
  16 C :    0.157376
  17 N :   -0.191905
  18 H :   -0.080608
  19 O :   -0.981113
  20 H :    0.108664
  21 H :    0.106755
  22 C :    0.232512
  23 H :    0.487803
  24 H :    0.227773
  25 Cl:   -0.284139
  26 Cl:   -0.374428
Sum of atomic charges:   -0.0000000

LOEWDIN ATOMIC CHARGES
----------------------
   0 C :   -0.303174
   1 C :   -0.779241
   2 Cl:    1.066218
   3 C :    0.142782
   4 H :   -0.193793
   5 C :   -0.245306
   6 C :   -0.116777
   7 C :   -0.681390
   8 C :    0.164119
   9 S :    0.093210
  10 O :    0.089600
  11 O :    0.053966
  12 N :    0.675063
  13 H :   -0.350844
  14 H :   -0.413774
  15 N :    0.575370
  16 C :   -0.377152
  17 N :    0.543806
  18 H :   -0.257273
  19 O :    0.482412
  20 H :   -0.200249
  21 H :   -0.288908
  22 C :   -1.153287
  23 H :   -0.148496
  24 H :   -0.311021
  25 Cl:    0.996253
  26 Cl:    0.937889

  Mayer bond orders larger than 0.100000
B(  0-C ,  1-C ) :   1.4516 B(  0-C ,  2-Cl) :   0.8169 B(  0-C ,  3-C ) :  -0.1226
B(  0-C ,  5-C ) :  -0.3680 B(  0-C ,  6-C ) :   0.4185 B(  0-C ,  8-C ) :   1.1891
B(  0-C ,  9-S ) :   0.8169 B(  0-C , 10-O ) :   0.1924 B(  0-C , 11-O ) :   0.1992
B(  0-C , 12-N ) :   0.1608 B(  0-C , 19-O ) :  -0.1053 B(  1-C ,  2-Cl) :  -0.1969
B(  1-C ,  3-C ) :   1.4452 B(  1-C ,  5-C ) :   0.2184 B(  1-C ,  6-C ) :   0.1632
B(  1-C ,  8-C ) :  -0.1410 B(  1-C , 12-N ) :  -0.1436 B(  2-Cl,  5-C ) :  -0.1896
B(  2-Cl,  9-S ) :  -0.1014 B(  3-C ,  4-H ) :   0.6287 B(  3-C ,  5-C ) :  -0.4665
B(  3-C ,  6-C ) :   0.2736 B(  3-C ,  8-C ) :  -0.1439 B(  3-C , 15-N ) :  -0.1526
B(  3-C , 16-C ) :   0.1418 B(  4-H ,  6-C ) :   0.1725 B(  5-C ,  6-C ) :   0.5440
B(  5-C ,  7-C ) :   0.6213 B(  5-C ,  8-C ) :  -0.4423 B(  5-C , 15-N ) :   0.7355
B(  5-C , 17-N ) :   0.1589 B(  6-C ,  8-C ) :   0.3230 B(  6-C , 15-N ) :  -0.4152
B(  6-C , 17-N ) :  -0.3590 B(  6-C , 19-O ) :   0.5991 B(  6-C , 20-H ) :  -0.1318
B(  7-C , 17-N ) :   1.1145 B(  7-C , 19-O ) :   0.7281 B(  8-C ,  9-S ) :   0.1272
B(  8-C , 10-O ) :  -0.1463 B(  8-C , 19-O ) :  -0.1881 B(  8-C , 20-H ) :   1.3858
B(  9-S , 10-O ) :   1.2340 B(  9-S , 11-O ) :   1.2755 B(  9-S , 12-N ) :   0.8831
B( 12-N , 13-H ) :   0.9639 B( 12-N , 14-H ) :   0.9455 B( 15-N , 16-C ) :   1.0536
B( 15-N , 17-N ) :  -0.1167 B( 15-N , 18-H ) :   1.2403 B( 15-N , 22-C ) :   0.1027
B( 16-C , 17-N ) :   0.8641 B( 16-C , 22-C ) :   0.9182 B( 16-C , 23-H ) :   0.7962
B( 16-C , 26-Cl) :  -0.1275 B( 17-N , 19-O ) :  -0.1040 B( 17-N , 21-H ) :   1.0541
B( 22-C , 24-H ) :   0.9352 B( 22-C , 25-Cl) :   0.8270 B( 22-C , 26-Cl) :   0.7228

MP2 TOTAL ENERGY:    -2514.337485960 Eh
Dispersion correction           -0.026269116
FINAL SINGLE POINT ENERGY     -2514.363755075395

DIPOLE MOMENT
-------------
                                X             Y             Z
Electronic contribution:      0.06593      -6.18953      -3.82093
Nuclear contribution   :     -1.69195       4.04775       0.71656
                        -----------------------------------------
Total Dipole Moment    :     -1.62602      -2.14178      -3.10437
                        -----------------------------------------
Magnitude (a.u.)       :      4.10710
Magnitude (Debye)      :     10.43942

Rotational constants in cm-1:     0.019185     0.004636     0.004247
Rotational constants in MHz :   575.140259   138.983403   127.312091

                             ****ORCA TERMINATED NORMALLY****
TOTAL RUN TIME: 0 days 0 hours 7 minutes 15 seconds 908 msec
