                         Program Version 5.0.3 -  RELEASE  -
|  1> !PAL8
|  2> !RI-DSD-PBEP86 D3BJ aug-cc-pVTZ aug-cc-pVTZ/C TightSCF
|  3> %maxcore 3000
|  4>
|  5>
|  6> * xyz 0 1
|  7> C -1.38580099  0.6306575952 -0.8179694739
|  8> C -2.5124694342  0.5165201855 -1.6482920814
|  9> Cl -4.1208667053  0.5159991852 -0.9942461195
| 10> C -2.3745266211  0.3900384066 -3.0201863705
| 11> H -3.2457678481  0.3161639897 -3.6618744268
| 12> C -1.1032198791  0.3722088585 -3.611966065
| 13> C  0.0099151528  0.4597611792 -2.7578323355
| 14> S  1.609840561  0.2303075431 -3.4484300309
| 15> C -0.1171641472  0.5964496221 -1.3801383553
| 16> H  0.7573365522  0.6833905087 -0.7399694106
| 17> S -1.4853919837  0.8628845965  0.9648273613
| 18> O -0.1136211771  0.8250538304  1.4335610643
| 19> O -2.3696221563  1.9807621564  1.2130507844
| 20> N -2.2202870163 -0.4755791192  1.5975982541
| 21> H -1.6775703529 -1.3274818651  1.4843331533
| 22> H -3.1979626218 -0.5701565721  1.335863078
| 23> N -1.0468724099  0.3234426394 -5.0027664375
| 24> C  0.0596525105  0.5994636564 -5.5895677793
| 25> N  1.2541611469  0.8918018482 -4.969394984
| 26> O  2.6058977457  1.0817218884 -2.8333853548
| 27> O  1.8623019299 -1.1879069667 -3.6082837199
| 28> H  0.0777635869  0.662449077 -6.6758010721
| 29> H  2.0695931571  1.1165187563 -5.5336996786
| 30> *
| 31>
| 32>                          ****END OF INPUT****

CARTESIAN COORDINATES (ANGSTROEM)
---------------------------------
  C     -1.385801    0.630658   -0.817969
  C     -2.512469    0.516520   -1.648292
  Cl    -4.120867    0.515999   -0.994246
  C     -2.374527    0.390038   -3.020186
  H     -3.245768    0.316164   -3.661874
  C     -1.103220    0.372209   -3.611966
  C      0.009915    0.459761   -2.757832
  S      1.609841    0.230308   -3.448430
  C     -0.117164    0.596450   -1.380138
  H      0.757337    0.683391   -0.739969
  S     -1.485392    0.862885    0.964827
  O     -0.113621    0.825054    1.433561
  O     -2.369622    1.980762    1.213051
  N     -2.220287   -0.475579    1.597598
  H     -1.677570   -1.327482    1.484333
  H     -3.197963   -0.570157    1.335863
  N     -1.046872    0.323443   -5.002766
  C      0.059653    0.599464   -5.589568
  N      1.254161    0.891802   -4.969395
  O      2.605898    1.081722   -2.833385
  O      1.862302   -1.187907   -3.608284
  H      0.077764    0.662449   -6.675801
  H      2.069593    1.116519   -5.533700

 Total Charge           Charge          ....    0
 Multiplicity           Mult            ....    1
 Number of Electrons    NEL             ....  150
 Basis Dimension        Dim             ....  932

ORBITAL ENERGIES
----------------

  NO   OCC          E(Eh)            E(eV)
   0   2.0000    -103.650504     -2820.4736
   1   2.0000     -91.077354     -2478.3408
   2   2.0000     -91.057841     -2477.8098
   3   2.0000     -20.050893      -545.6125
   4   2.0000     -20.046816      -545.5016
   5   2.0000     -20.029527      -545.0311
   6   2.0000     -20.027702      -544.9815
   7   2.0000     -15.193593      -413.4387
   8   2.0000     -15.149223      -412.2313
   9   2.0000     -15.135457      -411.8567
  10   2.0000     -10.978369      -298.7366
  11   2.0000     -10.960532      -298.2512
  12   2.0000     -10.941451      -297.7320
  13   2.0000     -10.913366      -296.9678
  14   2.0000     -10.913130      -296.9614
  15   2.0000     -10.907060      -296.7962
  16   2.0000     -10.888549      -296.2925
  17   2.0000     -10.198344      -277.5111
  18   2.0000      -8.820532      -240.0189
  19   2.0000      -8.800046      -239.4614
  20   2.0000      -7.771553      -211.4747
  21   2.0000      -7.766943      -211.3493
  22   2.0000      -7.766663      -211.3417
  23   2.0000      -6.607929      -179.8109
  24   2.0000      -6.604437      -179.7159
  25   2.0000      -6.603227      -179.6829
  26   2.0000      -6.586240      -179.2207
  27   2.0000      -6.585161      -179.1913
  28   2.0000      -6.583239      -179.1390
  29   2.0000      -1.373848       -37.3843
  30   2.0000      -1.353876       -36.8408
  31   2.0000      -1.253542       -34.1106
  32   2.0000      -1.238004       -33.6878
  33   2.0000      -1.233156       -33.5559
  34   2.0000      -1.150034       -31.2940
  35   2.0000      -1.127850       -30.6904
  36   2.0000      -1.118483       -30.4355
  37   2.0000      -1.068550       -29.0767
  38   2.0000      -0.991916       -26.9914
  39   2.0000      -0.975436       -26.5430
  40   2.0000      -0.882302       -24.0087
  41   2.0000      -0.857409       -23.3313
  42   2.0000      -0.818482       -22.2720
  43   2.0000      -0.793754       -21.5992
  44   2.0000      -0.742442       -20.2029
  45   2.0000      -0.721040       -19.6205
  46   2.0000      -0.714610       -19.4455
  47   2.0000      -0.684878       -18.6365
  48   2.0000      -0.674476       -18.3534
  49   2.0000      -0.645322       -17.5601
  50   2.0000      -0.634793       -17.2736
  51   2.0000      -0.627862       -17.0850
  52   2.0000      -0.621080       -16.9004
  53   2.0000      -0.613195       -16.6859
  54   2.0000      -0.594262       -16.1707
  55   2.0000      -0.577080       -15.7031
  56   2.0000      -0.567737       -15.4489
  57   2.0000      -0.560431       -15.2501
  58   2.0000      -0.538029       -14.6405
  59   2.0000      -0.528894       -14.3920
  60   2.0000      -0.492984       -13.4148
  61   2.0000      -0.488555       -13.2943
  62   2.0000      -0.471752       -12.8370
  63   2.0000      -0.459131       -12.4936
  64   2.0000      -0.455827       -12.4037
  65   2.0000      -0.452698       -12.3185
  66   2.0000      -0.449996       -12.2450
  67   2.0000      -0.447908       -12.1882
  68   2.0000      -0.443564       -12.0700
  69   2.0000      -0.429357       -11.6834
  70   2.0000      -0.427097       -11.6219
  71   2.0000      -0.416301       -11.3281
  72   2.0000      -0.411164       -11.1883
  73   2.0000      -0.358357        -9.7514
  74   2.0000      -0.339020        -9.2252
  75   0.0000      -0.023096        -0.6285
  76   0.0000       0.002903         0.0790
  77   0.0000       0.003438         0.0935
  78   0.0000       0.012798         0.3483
  79   0.0000       0.023825         0.6483

MULLIKEN ATOMIC CHARGES
-----------------------
   0 C :    0.017344
   1 C :    0.680739
   2 Cl:   -0.481653
   3 C :   -0.311629
   4 H :    0.535129
   5 C :    1.019308
   6 C :    0.495403
   7 S :    1.882975
   8 C :   -1.412620
   9 H :    0.390298
  10 S :    2.166866
  11 O :   -0.943674
  12 O :   -0.965487
  13 N :   -0.632909
  14 H :    0.142471
  15 H :    0.152697
  16 N :   -0.531434
  17 C :   -0.772269
  18 N :   -0.236998
  19 O :   -0.901086
  20 O :   -0.968794
  21 H :    0.636029
  22 H :    0.039293
Sum of atomic charges:   -0.0000000

LOEWDIN ATOMIC CHARGES
----------------------
   0 C :   -0.301656
   1 C :   -0.774134
   2 Cl:    1.072856
   3 C :    0.127181
   4 H :   -0.187488
   5 C :   -0.347868
   6 C :   -0.226427
   7 S :    0.168601
   8 C :    0.119919
   9 H :   -0.210666
  10 S :    0.099101
  11 O :    0.094097
  12 O :    0.060478
  13 N :    0.676361
  14 H :   -0.345402
  15 H :   -0.409399
  16 N :    0.383888
  17 C :   -0.106994
  18 N :    0.420270
  19 O :    0.082831
  20 O :    0.077639
  21 H :   -0.164699
  22 H :   -0.308488

  Mayer bond orders larger than 0.100000
B(  0-C ,  1-C ) :   1.3684 B(  0-C ,  2-Cl) :   0.5265 B(  0-C ,  3-C ) :  -0.3073
B(  0-C ,  6-C ) :   0.3348 B(  0-C ,  8-C ) :   1.1094 B(  0-C ,  9-H ) :   0.1106
B(  0-C , 10-S ) :   0.7982 B(  0-C , 11-O ) :   0.1679 B(  0-C , 12-O ) :   0.2262
B(  0-C , 13-N ) :   0.1732 B(  0-C , 19-O ) :  -0.1078 B(  1-C ,  3-C ) :   1.2217
B(  1-C ,  5-C ) :   0.1674 B(  1-C ,  8-C ) :   0.1455 B(  1-C , 13-N ) :  -0.1048
B(  3-C ,  4-H ) :   0.5842 B(  3-C ,  5-C ) :   0.8688 B(  3-C ,  8-C ) :  -0.1687
B(  3-C , 16-N ) :  -0.2010 B(  5-C ,  6-C ) :   1.2035 B(  5-C ,  7-S ) :   0.1244
B(  5-C , 16-N ) :  -0.1263 B(  5-C , 17-C ) :  -0.3299 B(  6-C ,  7-S ) :   0.7897
B(  6-C ,  8-C ) :   0.3235 B(  6-C , 16-N ) :   0.1636 B(  6-C , 19-O ) :   0.3049
B(  7-S , 18-N ) :   0.8831 B(  7-S , 19-O ) :   1.2759 B(  7-S , 20-O ) :   1.3694
B(  8-C ,  9-H ) :   0.6881 B( 10-S , 11-O ) :   1.2531 B( 10-S , 12-O ) :   1.2900
B( 10-S , 13-N ) :   0.9100 B( 13-N , 14-H ) :   0.9650 B( 13-N , 15-H ) :   0.9421
B( 16-N , 17-C ) :   1.8870 B( 17-C , 18-N ) :   1.0822 B( 17-C , 21-H ) :   0.4703
B( 18-N , 20-O ) :   0.1453 B( 18-N , 22-H ) :   1.0360

MP2 TOTAL ENERGY:    -1990.217997760 Eh
Dispersion correction           -0.023005950
FINAL SINGLE POINT ENERGY     -1990.241003710454

DIPOLE MOMENT
-------------
                                X             Y             Z
Electronic contribution:     -4.83687       1.31800       1.57716
Nuclear contribution   :      4.04289      -2.04606      -3.87694
                        -----------------------------------------
Total Dipole Moment    :     -0.79398      -0.72806      -2.29978
                        -----------------------------------------
Magnitude (a.u.)       :      2.53958
Magnitude (Debye)      :      6.45511

Rotational constants in cm-1:     0.022275     0.007986     0.006354
Rotational constants in MHz :   667.774279   239.403460   190.479070

                             ****ORCA TERMINATED NORMALLY****
TOTAL RUN TIME: 0 days 0 hours 5 minutes 2 seconds 783 msec
