                         Program Version 5.0.3 -  RELEASE  -
|  1> !PAL8
|  2> !RI-DSD-PBEP86 D3BJ aug-cc-pVTZ aug-cc-pVTZ/C TightSCF
|  3> %maxcore 5000
|  4>
|  5> * xyz 0 1
|  6> C -1.4545183962  0.5475222185 -0.897672235
|  7> C -2.525911118  0.1950387077 -1.7171889311
|  8> H -3.420402979 -0.2372218396 -1.2777589142
|  9> C -2.4263516875  0.3709084928 -3.0893424392
| 10> H -3.2565625993  0.0936667547 -3.7335783572
| 11> C -1.2543816563  0.8976870562 -3.6580811883
| 12> N -1.174504052  1.1201291932 -5.0230405397
| 13> C -0.1824293674  1.2397760015 -2.8164339564
| 14> H  0.7318329682  1.6380111454 -3.248505951
| 15> C -0.2806577866  1.064420429 -1.4441199749
| 16> H  0.5564640827  1.3026534273 -0.7940919996
| 17> S -1.5970021186  0.362902376  0.8616714403
| 18> O -2.6185860666 -0.6386749485  1.1157446819
| 19> O -0.2514991896  0.2777373807  1.403627955
| 20> N -2.2226251536  1.7884032076  1.4681564327
| 21> H -3.1630498104  1.9719381263  1.127298697
| 22> H -1.5988415606  2.5774052688  1.3176993153
| 23> H -1.8044511666  0.5822817494 -5.6034446254
| 24> H -0.2439143425  1.186522253 -5.4136514102
| 25> *
| 26>
| 27>
| 28>
| 29>                          ****END OF INPUT****

CARTESIAN COORDINATES (ANGSTROEM)
---------------------------------
  C     -1.454518    0.547522   -0.897672
  C     -2.525911    0.195039   -1.717189
  H     -3.420403   -0.237222   -1.277759
  C     -2.426352    0.370908   -3.089342
  H     -3.256563    0.093667   -3.733578
  C     -1.254382    0.897687   -3.658081
  N     -1.174504    1.120129   -5.023041
  C     -0.182429    1.239776   -2.816434
  H      0.731833    1.638011   -3.248506
  C     -0.280658    1.064420   -1.444120
  H      0.556464    1.302653   -0.794092
  S     -1.597002    0.362902    0.861671
  O     -2.618586   -0.638675    1.115745
  O     -0.251499    0.277737    1.403628
  N     -2.222625    1.788403    1.468156
  H     -3.163050    1.971938    1.127299
  H     -1.598842    2.577405    1.317699
  H     -1.804451    0.582282   -5.603445
  H     -0.243914    1.186522   -5.413651

 Total Charge           Charge          ....    0
 Multiplicity           Mult            ....    1
 Number of Electrons    NEL             ....   90
 Basis Dimension        Dim             ....  694

ORBITAL ENERGIES
----------------

  NO   OCC          E(Eh)            E(eV)
   0   2.0000     -91.033337     -2477.1430
   1   2.0000     -20.008598      -544.4616
   2   2.0000     -20.008511      -544.4593
   3   2.0000     -15.130587      -411.7242
   4   2.0000     -15.126136      -411.6031
   5   2.0000     -10.910907      -296.9009
   6   2.0000     -10.869204      -295.7661
   7   2.0000     -10.868486      -295.7465
   8   2.0000     -10.867796      -295.7278
   9   2.0000     -10.853481      -295.3382
  10   2.0000     -10.853466      -295.3378
  11   2.0000      -8.776245      -238.8138
  12   2.0000      -6.562411      -178.5723
  13   2.0000      -6.560983      -178.5334
  14   2.0000      -6.559583      -178.4953
  15   2.0000      -1.330428       -36.2028
  16   2.0000      -1.216222       -33.0951
  17   2.0000      -1.144905       -31.1545
  18   2.0000      -1.102773       -30.0080
  19   2.0000      -1.058090       -28.7921
  20   2.0000      -0.947483       -25.7823
  21   2.0000      -0.936669       -25.4881
  22   2.0000      -0.813774       -22.1439
  23   2.0000      -0.786128       -21.3916
  24   2.0000      -0.742208       -20.1965
  25   2.0000      -0.681199       -18.5364
  26   2.0000      -0.657662       -17.8959
  27   2.0000      -0.652130       -17.7454
  28   2.0000      -0.648089       -17.6354
  29   2.0000      -0.608480       -16.5576
  30   2.0000      -0.577135       -15.7046
  31   2.0000      -0.573600       -15.6084
  32   2.0000      -0.553266       -15.0551
  33   2.0000      -0.549766       -14.9599
  34   2.0000      -0.527828       -14.3629
  35   2.0000      -0.507961       -13.8223
  36   2.0000      -0.464648       -12.6437
  37   2.0000      -0.450861       -12.2686
  38   2.0000      -0.445815       -12.1312
  39   2.0000      -0.433264       -11.7897
  40   2.0000      -0.412231       -11.2174
  41   2.0000      -0.409941       -11.1551
  42   2.0000      -0.400774       -10.9056
  43   2.0000      -0.339683        -9.2433
  44   2.0000      -0.295863        -8.0508
  45   0.0000       0.006004         0.1634
  46   0.0000       0.016661         0.4534
  47   0.0000       0.020015         0.5446
  48   0.0000       0.034783         0.9465
  49   0.0000       0.036689         0.9984

MULLIKEN ATOMIC CHARGES
-----------------------
   0 C :    0.912484
   1 C :   -0.832882
   2 H :    0.461548
   3 C :   -0.656946
   4 H :    0.440653
   5 C :    1.173347
   6 N :   -0.752647
   7 C :   -0.691730
   8 H :    0.464739
   9 C :   -0.859797
  10 H :    0.441139
  11 S :    1.967075
  12 O :   -0.948742
  13 O :   -0.948957
  14 N :   -0.583778
  15 H :    0.148525
  16 H :    0.143356
  17 H :    0.058045
  18 H :    0.064568
Sum of atomic charges:    0.0000000

LOEWDIN ATOMIC CHARGES
----------------------
   0 C :   -0.266729
   1 C :    0.152435
   2 H :   -0.190328
   3 C :    0.226736
   4 H :   -0.175378
   5 C :   -0.242148
   6 N :    0.854882
   7 C :    0.226775
   8 H :   -0.175389
   9 C :    0.152388
  10 H :   -0.190339
  11 S :    0.113619
  12 O :    0.067814
  13 O :    0.067799
  14 N :    0.684584
  15 H :   -0.357675
  16 H :   -0.357652
  17 H :   -0.295719
  18 H :   -0.295675

  Mayer bond orders larger than 0.100000
B(  0-C ,  1-C ) :   0.7130 B(  0-C ,  3-C ) :  -0.1070 B(  0-C ,  7-C ) :  -0.1237
B(  0-C ,  9-C ) :   0.7027 B(  0-C , 11-S ) :   0.9463 B(  0-C , 12-O ) :   0.1828
B(  0-C , 13-O ) :   0.2130 B(  1-C ,  2-H ) :   0.6736 B(  1-C ,  3-C ) :   1.3282
B(  1-C ,  9-C ) :   0.1952 B(  3-C ,  4-H ) :   0.7456 B(  3-C ,  5-C ) :   0.9972
B(  3-C ,  6-N ) :  -0.1019 B(  3-C ,  7-C ) :   0.1314 B(  5-C ,  6-N ) :   0.5110
B(  5-C ,  7-C ) :   0.9891 B(  6-N ,  7-C ) :  -0.1229 B(  6-N , 17-H ) :   1.1222
B(  6-N , 18-H ) :   1.1140 B(  7-C ,  8-H ) :   0.7040 B(  7-C ,  9-C ) :   1.3902
B(  9-C , 10-H ) :   0.7246 B( 11-S , 12-O ) :   1.2452 B( 11-S , 13-O ) :   1.2286
B( 11-S , 14-N ) :   0.9730 B( 14-N , 15-H ) :   0.9493 B( 14-N , 16-H ) :   0.9564

MP2 TOTAL ENERGY:     -890.633784555 Eh
Dispersion correction           -0.013801631
FINAL SINGLE POINT ENERGY      -890.647586185996

DIPOLE MOMENT
-------------
                                X             Y             Z
Electronic contribution:      0.16080      -2.55660       6.81671
Nuclear contribution   :     -0.34665       3.85402      -9.41724
                        -----------------------------------------
Total Dipole Moment    :     -0.18585       1.29742      -2.60053
                        -----------------------------------------
Magnitude (a.u.)       :      2.91215
Magnitude (Debye)      :      7.40209

Rotational constants in cm-1:     0.085558     0.018725     0.017001
Rotational constants in MHz :  2564.960053   561.366317   509.671414

                             ****ORCA TERMINATED NORMALLY****
TOTAL RUN TIME: 0 days 0 hours 2 minutes 24 seconds 427 msec
