                         Program Version 5.0.3 -  RELEASE  -
|  1> !PAL8
|  2> !RI-DSD-PBEP86 D3BJ aug-cc-pVTZ aug-cc-pVTZ/C TightSCF
|  3> %maxcore 3000
|  4>
|  5>
|  6> * xyz 0 1
|  7> C -1.5826453721  1.1895455204 -1.2269886136
|  8> C -2.697494406  1.313212033 -2.0988411044
|  9> C -2.7577748304  0.6189766026 -3.2803498941
| 10> C -1.6862506744 -0.2176506959 -3.6628155361
| 11> C -0.5803543167 -0.3209660511 -2.8555065856
| 12> C -0.4760882402  0.3737712539 -1.6096755142
| 13> S  0.7762833814 -1.3062576435 -3.4908154234
| 14> O  1.2972730399 -2.1408102217 -2.4227866767
| 15> O  0.3439227871 -1.8649878972 -4.7597214763
| 16> N  1.9952257428 -0.2329495061 -3.8723860702
| 17> H  2.344066343  0.2753501486 -3.0627124139
| 18> H  1.7218989469  0.3934946773 -4.6259259423
| 19> C  0.6693851404  0.3226623116 -0.7649403623
| 20> C  0.7102378652  1.080622512  0.3769765355
| 21> C -0.3880842308  1.8759825421  0.7738257694
| 22> C -1.5392177768  1.9104372425  0.016724178
| 23> N -2.689017156  2.6451809755  0.398701174
| 24> C -3.7942334753  1.8023822676  0.8577571622
| 25> C -2.4620179186  3.7420922642  1.3233328657
| 26> H -3.4932850994  1.9964218195 -1.8207466816
| 27> H -3.6148734327  0.724942939 -3.9376677911
| 28> H -1.713829471 -0.7672552956 -4.5981580703
| 29> H  1.4885184261 -0.3485792184 -0.9957377044
| 30> H  1.5888042392  1.0418846981  1.0143962604
| 31> H -0.3278293192  2.4303335204  1.7042996023
| 32> H -3.9495505033  0.9649247431  0.1756013988
| 33> H -4.7105496244  2.3995952942  0.8952727352
| 34> H -3.5957265489  1.3957001579  1.8635364507
| 35> H -1.64273578  4.3686115814  0.9626135791
| 36> H -2.2297710533  3.4028326334  2.3477952198
| 37> H -3.3708246822  4.3489757912  1.3698359293
| 38> *
| 39>
| 40>                          ****END OF INPUT****

CARTESIAN COORDINATES (ANGSTROEM)
---------------------------------
  C     -1.582645    1.189546   -1.226989
  C     -2.697494    1.313212   -2.098841
  C     -2.757775    0.618977   -3.280350
  C     -1.686251   -0.217651   -3.662816
  C     -0.580354   -0.320966   -2.855507
  C     -0.476088    0.373771   -1.609676
  S      0.776283   -1.306258   -3.490815
  O      1.297273   -2.140810   -2.422787
  O      0.343923   -1.864988   -4.759721
  N      1.995226   -0.232950   -3.872386
  H      2.344066    0.275350   -3.062712
  H      1.721899    0.393495   -4.625926
  C      0.669385    0.322662   -0.764940
  C      0.710238    1.080623    0.376977
  C     -0.388084    1.875983    0.773826
  C     -1.539218    1.910437    0.016724
  N     -2.689017    2.645181    0.398701
  C     -3.794233    1.802382    0.857757
  C     -2.462018    3.742092    1.323333
  H     -3.493285    1.996422   -1.820747
  H     -3.614873    0.724943   -3.937668
  H     -1.713829   -0.767255   -4.598158
  H      1.488518   -0.348579   -0.995738
  H      1.588804    1.041885    1.014396
  H     -0.327829    2.430334    1.704300
  H     -3.949551    0.964925    0.175601
  H     -4.710550    2.399595    0.895273
  H     -3.595727    1.395700    1.863536
  H     -1.642736    4.368612    0.962614
  H     -2.229771    3.402833    2.347795
  H     -3.370825    4.348976    1.369836

 Total Charge           Charge          ....    0
 Multiplicity           Mult            ....    1
 Number of Electrons    NEL             ....  132
 Basis Dimension        Dim             .... 1108

ORBITAL ENERGIES
----------------

  NO   OCC          E(Eh)            E(eV)
   0   2.0000     -91.037724     -2477.2624
   1   2.0000     -20.012547      -544.5691
   2   2.0000     -20.011739      -544.5471
   3   2.0000     -15.134372      -411.8272
   4   2.0000     -15.114569      -411.2883
   5   2.0000     -10.891477      -296.3721
   6   2.0000     -10.881196      -296.0924
   7   2.0000     -10.876893      -295.9753
   8   2.0000     -10.865704      -295.6708
   9   2.0000     -10.864888      -295.6486
  10   2.0000     -10.864851      -295.6476
  11   2.0000     -10.864071      -295.6264
  12   2.0000     -10.859878      -295.5123
  13   2.0000     -10.855012      -295.3799
  14   2.0000     -10.854795      -295.3740
  15   2.0000     -10.846663      -295.1527
  16   2.0000     -10.845445      -295.1196
  17   2.0000      -8.780677      -238.9344
  18   2.0000      -6.566877      -178.6938
  19   2.0000      -6.565321      -178.6515
  20   2.0000      -6.564023      -178.6161
  21   2.0000      -1.335142       -36.3311
  22   2.0000      -1.220032       -33.1988
  23   2.0000      -1.157734       -31.5035
  24   2.0000      -1.108302       -30.1584
  25   2.0000      -1.083664       -29.4880
  26   2.0000      -1.025620       -27.9085
  27   2.0000      -0.973332       -26.4857
  28   2.0000      -0.936365       -25.4798
  29   2.0000      -0.915724       -24.9181
  30   2.0000      -0.883498       -24.0412
  31   2.0000      -0.825243       -22.4560
  32   2.0000      -0.817920       -22.2567
  33   2.0000      -0.781362       -21.2619
  34   2.0000      -0.761450       -20.7201
  35   2.0000      -0.724441       -19.7130
  36   2.0000      -0.671807       -18.2808
  37   2.0000      -0.657359       -17.8876
  38   2.0000      -0.652087       -17.7442
  39   2.0000      -0.638757       -17.3815
  40   2.0000      -0.627701       -17.0806
  41   2.0000      -0.611143       -16.6300
  42   2.0000      -0.597376       -16.2554
  43   2.0000      -0.583852       -15.8874
  44   2.0000      -0.574933       -15.6447
  45   2.0000      -0.568450       -15.4683
  46   2.0000      -0.552506       -15.0344
  47   2.0000      -0.541562       -14.7366
  48   2.0000      -0.527081       -14.3426
  49   2.0000      -0.517365       -14.0782
  50   2.0000      -0.504283       -13.7222
  51   2.0000      -0.500524       -13.6199
  52   2.0000      -0.494171       -13.4471
  53   2.0000      -0.479185       -13.0393
  54   2.0000      -0.470859       -12.8127
  55   2.0000      -0.455744       -12.4014
  56   2.0000      -0.446225       -12.1424
  57   2.0000      -0.440142       -11.9769
  58   2.0000      -0.435081       -11.8392
  59   2.0000      -0.422999       -11.5104
  60   2.0000      -0.414777       -11.2867
  61   2.0000      -0.397740       -10.8231
  62   2.0000      -0.378222       -10.2919
  63   2.0000      -0.334442        -9.1006
  64   2.0000      -0.319205        -8.6860
  65   2.0000      -0.277822        -7.5599
  66   0.0000       0.000664         0.0181
  67   0.0000       0.009880         0.2688
  68   0.0000       0.017732         0.4825
  69   0.0000       0.018718         0.5094
  70   0.0000       0.025944         0.7060

MULLIKEN ATOMIC CHARGES
-----------------------
   0 C :    1.936924
   1 C :   -1.137847
   2 C :   -0.933061
   3 C :   -1.096323
   4 C :    0.603152
   5 C :    1.260240
   6 S :    2.240670
   7 O :   -0.999755
   8 O :   -1.021540
   9 N :   -0.651815
  10 H :    0.187651
  11 H :    0.121003
  12 C :   -1.205148
  13 C :   -0.949590
  14 C :   -0.714578
  15 C :    0.874397
  16 N :   -0.156177
  17 C :   -1.112295
  18 C :   -1.258907
  19 H :    0.081039
  20 H :    0.553835
  21 H :    0.371188
  22 H :    0.057561
  23 H :    0.565003
  24 H :    0.300992
  25 H :    0.427793
  26 H :    0.349231
  27 H :    0.280246
  28 H :    0.373891
  29 H :    0.328685
  30 H :    0.323535
Sum of atomic charges:    0.0000000

LOEWDIN ATOMIC CHARGES
----------------------
   0 C :   -0.072198
   1 C :    0.228257
   2 C :    0.228167
   3 C :    0.162922
   4 C :   -0.197991
   5 C :   -0.129970
   6 S :    0.146963
   7 O :    0.089851
   8 O :    0.086907
   9 N :    0.697313
  10 H :   -0.369707
  11 H :   -0.349626
  12 C :    0.203842
  13 C :    0.220223
  14 C :    0.235146
  15 C :   -0.206065
  16 N :    0.239258
  17 C :    0.468715
  18 C :    0.443623
  19 H :   -0.184326
  20 H :   -0.175630
  21 H :   -0.215740
  22 H :   -0.250428
  23 H :   -0.171603
  24 H :   -0.190306
  25 H :   -0.177103
  26 H :   -0.152309
  27 H :   -0.140338
  28 H :   -0.155491
  29 H :   -0.154924
  30 H :   -0.157429

  Mayer bond orders larger than 0.100000
B(  0-C ,  1-C ) :  -0.1176 B(  0-C ,  2-C ) :   0.1596 B(  0-C ,  3-C ) :  -0.4402
B(  0-C ,  4-C ) :   0.4514 B(  0-C ,  5-C ) :  -0.6148 B(  0-C , 12-C ) :  -0.8617
B(  0-C , 14-C ) :   0.3798 B(  0-C , 15-C ) :  -0.1118 B(  0-C , 18-C ) :   0.1000
B(  0-C , 19-H ) :  -0.2217 B(  0-C , 22-H ) :  -0.2706 B(  0-C , 24-H ) :   0.5299
B(  1-C ,  2-C ) :   1.2625 B(  1-C ,  3-C ) :   0.2266 B(  1-C ,  4-C ) :  -0.1583
B(  1-C ,  5-C ) :  -0.5398 B(  1-C , 14-C ) :   0.1183 B(  1-C , 15-C ) :   0.6470
B(  1-C , 19-H ) :   1.5344 B(  1-C , 21-H ) :   0.1044 B(  2-C ,  3-C ) :   1.1641
B(  2-C ,  4-C ) :   0.3044 B(  2-C ,  5-C ) :  -0.3467 B(  2-C ,  8-O ) :  -0.1403
B(  2-C , 19-H ) :  -0.1555 B(  2-C , 20-H ) :   0.6071 B(  2-C , 21-H ) :  -0.1633
B(  3-C ,  4-C ) :   0.4502 B(  3-C ,  5-C ) :   0.5409 B(  3-C ,  7-O ) :  -0.1127
B(  3-C , 12-C ) :   0.1077 B(  3-C , 15-C ) :   0.1793 B(  3-C , 21-H ) :   0.9264
B(  4-C ,  5-C ) :  -0.4192 B(  4-C ,  6-S ) :   0.7745 B(  4-C ,  7-O ) :   0.2742
B(  4-C ,  8-O ) :   0.2653 B(  4-C ,  9-N ) :   0.1491 B(  4-C , 12-C ) :   0.9254
B(  4-C , 14-C ) :   0.2125 B(  4-C , 15-C ) :  -0.2298 B(  4-C , 19-H ) :  -0.2036
B(  4-C , 21-H ) :  -0.2136 B(  4-C , 22-H ) :  -0.1514 B(  5-C ,  6-S ) :   0.1943
B(  5-C , 12-C ) :  -0.2400 B(  5-C , 13-C ) :   0.3386 B(  5-C , 14-C ) :  -0.6113
B(  5-C , 15-C ) :   0.2822 B(  5-C , 16-N ) :   0.2190 B(  5-C , 19-H ) :   0.2959
B(  5-C , 20-H ) :  -0.1332 B(  5-C , 21-H ) :   0.2587 B(  6-S ,  7-O ) :   1.2020
B(  6-S ,  8-O ) :   0.9877 B(  6-S ,  9-N ) :   0.8851 B(  6-S , 12-C ) :  -0.1145
B(  6-S , 22-H ) :  -0.1293 B(  9-N , 10-H ) :   0.9097 B(  9-N , 11-H ) :   0.9783
B( 12-C , 13-C ) :   1.4857 B( 12-C , 14-C ) :   0.1212 B( 12-C , 22-H ) :   1.9214
B( 12-C , 24-H ) :   0.1554 B( 13-C , 14-C ) :   0.8864 B( 13-C , 23-H ) :   0.4600
B( 13-C , 24-H ) :  -0.2233 B( 14-C , 15-C ) :   0.6191 B( 14-C , 16-N ) :  -0.7167
B( 14-C , 18-C ) :  -0.2115 B( 14-C , 24-H ) :   1.0552 B( 15-C , 16-N ) :   0.3806
B( 15-C , 17-C ) :  -0.1812 B( 15-C , 18-C ) :  -0.1326 B( 15-C , 23-H ) :   0.1766
B( 15-C , 24-H ) :  -0.5420 B( 16-N , 17-C ) :   1.0508 B( 16-N , 18-C ) :   1.2100
B( 17-C , 25-H ) :   0.8195 B( 17-C , 26-H ) :   0.8960 B( 17-C , 27-H ) :   0.9604
B( 18-C , 28-H ) :   0.9227 B( 18-C , 29-H ) :   0.9304 B( 18-C , 30-H ) :   0.9213

MP2 TOTAL ENERGY:    -1122.508811300 Eh
Dispersion correction           -0.024705219
FINAL SINGLE POINT ENERGY     -1122.533516519146

DIPOLE MOMENT
-------------
                                X             Y             Z
Electronic contribution:      9.78144     -12.71390     -13.31287
Nuclear contribution   :    -10.75392      15.17681      14.39978
                        -----------------------------------------
Total Dipole Moment    :     -0.97248       2.46291       1.08692
                        -----------------------------------------
Magnitude (a.u.)       :      2.86235
Magnitude (Debye)      :      7.27551

Rotational constants in cm-1:     0.032411     0.008908     0.007526
Rotational constants in MHz :   971.666563   267.054631   225.626587

                             ****ORCA TERMINATED NORMALLY****
TOTAL RUN TIME: 0 days 0 hours 8 minutes 6 seconds 852 msec
