                         Program Version 5.0.3 -  RELEASE  -
|  1> !PAL8
|  2> !RI-DSD-PBEP86 D3BJ aug-cc-pVTZ aug-cc-pVTZ/C TightSCF
|  3> %maxcore 5000
|  4>
|  5> * xyz 0 1
|  6> C -1.3369504254  0.716196383 -0.8255278516
|  7> C -2.5317556746  0.8002351429 -1.5341718759
|  8> H -3.478285493  0.7908366049 -1.0013810469
|  9> C -2.4848836121  0.9226620805 -2.9204005348
| 10> H -3.412550637  0.994285508 -3.4825225816
| 11> C -1.2634178527  0.9667304827 -3.6004310273
| 12> C -1.2180357689  1.1352193481 -5.0973678714
| 13> C -0.0784288833  0.8866008658 -2.859042328
| 14> H  0.8779926437  0.930288486 -3.3743774033
| 15> C -0.1048998017  0.7642532678 -1.4736391488
| 16> H  0.8128247199  0.7276681439 -0.893667577
| 17> S -1.3842370627  0.5123053482  0.9457019217
| 18> O -0.1158016394  0.983729211  1.4724696007
| 19> O -2.6687283942  1.0080649818  1.4071604438
| 20> N -1.4074961773 -1.1276441406  1.2489907555
| 21> H -0.5579461564 -1.5935777839  0.9405051476
| 22> H -0.401966414  0.5545431768 -5.5368390089
| 23> H -2.1551325711  0.8173828764 -5.5618857027
| 24> H -2.2482129013 -1.5777760941  0.8960389779
| 25> H -1.0547358985  2.1863961107 -5.3605528889
| 26> *
| 27>
| 28>
| 29>
| 30>                          ****END OF INPUT****

CARTESIAN COORDINATES (ANGSTROEM)
---------------------------------
  C     -1.336950    0.716196   -0.825528
  C     -2.531756    0.800235   -1.534172
  H     -3.478285    0.790837   -1.001381
  C     -2.484884    0.922662   -2.920401
  H     -3.412551    0.994286   -3.482523
  C     -1.263418    0.966730   -3.600431
  C     -1.218036    1.135219   -5.097368
  C     -0.078429    0.886601   -2.859042
  H      0.877993    0.930288   -3.374377
  C     -0.104900    0.764253   -1.473639
  H      0.812825    0.727668   -0.893668
  S     -1.384237    0.512305    0.945702
  O     -0.115802    0.983729    1.472470
  O     -2.668728    1.008065    1.407160
  N     -1.407496   -1.127644    1.248991
  H     -0.557946   -1.593578    0.940505
  H     -0.401966    0.554543   -5.536839
  H     -2.155133    0.817383   -5.561886
  H     -2.248213   -1.577776    0.896039
  H     -1.054736    2.186396   -5.360553

 Total Charge           Charge          ....    0
 Multiplicity           Mult            ....    1
 Number of Electrons    NEL             ....   90
 Basis Dimension        Dim             ....  717

ORBITAL ENERGIES
----------------

  NO   OCC          E(Eh)            E(eV)
   0   2.0000     -91.038686     -2477.2886
   1   2.0000     -20.014073      -544.6106
   2   2.0000     -20.014044      -544.6098
   3   2.0000     -15.136157      -411.8758
   4   2.0000     -10.879515      -296.0466
   5   2.0000     -10.874075      -295.8986
   6   2.0000     -10.867946      -295.7318
   7   2.0000     -10.867890      -295.7303
   8   2.0000     -10.857788      -295.4554
   9   2.0000     -10.857749      -295.4544
  10   2.0000     -10.845608      -295.1240
  11   2.0000      -8.781664      -238.9612
  12   2.0000      -6.567840      -178.7200
  13   2.0000      -6.566428      -178.6816
  14   2.0000      -6.564929      -178.6408
  15   2.0000      -1.336180       -36.3593
  16   2.0000      -1.221885       -33.2492
  17   2.0000      -1.108760       -30.1709
  18   2.0000      -1.079555       -29.3762
  19   2.0000      -0.983346       -26.7582
  20   2.0000      -0.946791       -25.7635
  21   2.0000      -0.884016       -24.0553
  22   2.0000      -0.801091       -21.7988
  23   2.0000      -0.779649       -21.2153
  24   2.0000      -0.735096       -20.0030
  25   2.0000      -0.681773       -18.5520
  26   2.0000      -0.657273       -17.8853
  27   2.0000      -0.625554       -17.0222
  28   2.0000      -0.608243       -16.5511
  29   2.0000      -0.593735       -16.1564
  30   2.0000      -0.571935       -15.5631
  31   2.0000      -0.560788       -15.2598
  32   2.0000      -0.553728       -15.0677
  33   2.0000      -0.542637       -14.7659
  34   2.0000      -0.506501       -13.7826
  35   2.0000      -0.484176       -13.1751
  36   2.0000      -0.479787       -13.0557
  37   2.0000      -0.461470       -12.5572
  38   2.0000      -0.451331       -12.2814
  39   2.0000      -0.438268       -11.9259
  40   2.0000      -0.426693       -11.6109
  41   2.0000      -0.417374       -11.3573
  42   2.0000      -0.403623       -10.9832
  43   2.0000      -0.337832        -9.1929
  44   2.0000      -0.329040        -8.9536
  45   0.0000       0.008916         0.2426
  46   0.0000       0.017028         0.4634
  47   0.0000       0.021957         0.5975
  48   0.0000       0.023283         0.6336
  49   0.0000       0.032683         0.8893

MULLIKEN ATOMIC CHARGES
-----------------------
   0 C :    0.943815
   1 C :   -0.872840
   2 H :    0.519755
   3 C :   -0.769486
   4 H :    0.251847
   5 C :    1.306707
   6 C :   -0.958640
   7 C :   -0.895339
   8 H :    0.286389
   9 C :   -0.961117
  10 H :    0.498087
  11 S :    1.959439
  12 O :   -0.944917
  13 O :   -0.946459
  14 N :   -0.577750
  15 H :    0.143594
  16 H :    0.290560
  17 H :    0.262627
  18 H :    0.146422
  19 H :    0.317306
Sum of atomic charges:    0.0000000

LOEWDIN ATOMIC CHARGES
----------------------
   0 C :   -0.256751
   1 C :    0.165425
   2 H :   -0.192185
   3 C :    0.224307
   4 H :   -0.171654
   5 C :   -0.118717
   6 C :    0.582975
   7 C :    0.223026
   8 H :   -0.168933
   9 C :    0.165010
  10 H :   -0.192010
  11 S :    0.119688
  12 O :    0.070184
  13 O :    0.070312
  14 N :    0.685886
  15 H :   -0.355363
  16 H :   -0.167498
  17 H :   -0.171913
  18 H :   -0.355252
  19 H :   -0.156538

  Mayer bond orders larger than 0.100000
B(  0-C ,  1-C ) :   0.7516 B(  0-C ,  3-C ) :  -0.1694 B(  0-C ,  7-C ) :  -0.1596
B(  0-C ,  9-C ) :   0.7566 B(  0-C , 11-S ) :   0.9778 B(  0-C , 12-O ) :   0.2142
B(  0-C , 13-O ) :   0.1980 B(  1-C ,  2-H ) :   0.6086 B(  1-C ,  3-C ) :   1.3105
B(  1-C ,  5-C ) :   0.1463 B(  1-C ,  9-C ) :   0.1316 B(  3-C ,  4-H ) :   1.1570
B(  3-C ,  5-C ) :   0.7038 B(  3-C ,  7-C ) :  -0.1671 B(  4-H ,  5-C ) :  -0.1034
B(  5-C ,  6-C ) :   0.3809 B(  5-C ,  7-C ) :   0.6856 B(  5-C ,  8-H ) :  -0.1007
B(  5-C ,  9-C ) :   0.1181 B(  6-C ,  7-C ) :   0.1563 B(  6-C , 16-H ) :   0.9757
B(  6-C , 17-H ) :   1.0030 B(  6-C , 19-H ) :   0.9497 B(  7-C ,  8-H ) :   1.0897
B(  7-C ,  9-C ) :   1.3887 B(  9-C , 10-H ) :   0.6441 B( 11-S , 12-O ) :   1.2499
B( 11-S , 13-O ) :   1.2134 B( 11-S , 14-N ) :   0.9505 B( 14-N , 15-H ) :   0.9558
B( 14-N , 18-H ) :   0.9519

MP2 TOTAL ENERGY:     -874.593393346 Eh
Dispersion correction           -0.014253869
FINAL SINGLE POINT ENERGY      -874.607647215400

DIPOLE MOMENT
-------------
                                X             Y             Z
Electronic contribution:     -0.32114       0.69880      12.14398
Nuclear contribution   :      0.37686      -1.86295     -14.52421
                        -----------------------------------------
Total Dipole Moment    :      0.05572      -1.16414      -2.38023
                        -----------------------------------------
Magnitude (a.u.)       :      2.65025
Magnitude (Debye)      :      6.73640

Rotational constants in cm-1:     0.085031     0.018661     0.016975
Rotational constants in MHz :  2549.154348   559.428482   508.891571

                             ****ORCA TERMINATED NORMALLY****
TOTAL RUN TIME: 0 days 0 hours 2 minutes 31 seconds 735 msec
