                         Program Version 5.0.3 -  RELEASE  -
|  1> !PAL8
|  2> !RI-DSD-PBEP86 D3BJ aug-cc-pVTZ aug-cc-pVTZ/C TightSCF
|  3> %maxcore 5000
|  4>
|  5> * xyz 0 1
|  6> C -1.2184746477  0.5142324701 -0.8493895511
|  7> C -2.378293438  1.0358999427 -1.4192896887
|  8> H -3.2413393726  1.2435384482 -0.7936908289
|  9> C -2.4227520577  1.2548619622 -2.7926611487
| 10> H -3.3058463739  1.6506033314 -3.2822685028
| 11> C -1.3010960222  0.939736933 -3.5478511971
| 12> C -0.1433782563  0.4078639058 -2.9960084919
| 13> H  0.6950550517  0.1638988999 -3.6391981186
| 14> C -0.1046814956  0.191043101 -1.6221235777
| 15> H  0.7704561158 -0.2472139602 -1.1515910762
| 16> S -1.1490555557  0.2767199404  0.9180461954
| 17> O -2.5168129268  0.1631591325  1.3903081325
| 18> O -0.1299997969 -0.723760633  1.1773757301
| 19> N -0.5655291347  1.6877432427  1.5816500983
| 20> H -1.1908243953  2.4779314099  1.4471625812
| 21> H  0.3918897699  1.8898039001  1.3059710341
| 22> F -1.3416304642  1.1488929733 -4.8734115897
| 23> *
| 24>
| 25>
| 26>
| 27>                          ****END OF INPUT****

CARTESIAN COORDINATES (ANGSTROEM)
---------------------------------
  C     -1.218475    0.514232   -0.849390
  C     -2.378293    1.035900   -1.419290
  H     -3.241339    1.243538   -0.793691
  C     -2.422752    1.254862   -2.792661
  H     -3.305846    1.650603   -3.282269
  C     -1.301096    0.939737   -3.547851
  C     -0.143378    0.407864   -2.996008
  H      0.695055    0.163899   -3.639198
  C     -0.104681    0.191043   -1.622124
  H      0.770456   -0.247214   -1.151591
  S     -1.149056    0.276720    0.918046
  O     -2.516813    0.163159    1.390308
  O     -0.130000   -0.723761    1.177376
  N     -0.565529    1.687743    1.581650
  H     -1.190824    2.477931    1.447163
  H      0.391890    1.889804    1.305971
  F     -1.341630    1.148893   -4.873412

 Total Charge           Charge          ....    0
 Multiplicity           Mult            ....    1
 Number of Electrons    NEL             ....   90
 Basis Dimension        Dim             ....  648

ORBITAL ENERGIES
----------------

  NO   OCC          E(Eh)            E(eV)
   0   2.0000     -91.047454     -2477.5272
   1   2.0000     -25.730376      -700.1591
   2   2.0000     -20.022106      -544.8292
   3   2.0000     -20.021999      -544.8263
   4   2.0000     -15.143552      -412.0770
   5   2.0000     -10.959243      -298.2162
   6   2.0000     -10.891049      -296.3605
   7   2.0000     -10.885034      -296.1968
   8   2.0000     -10.884941      -296.1943
   9   2.0000     -10.873905      -295.8940
  10   2.0000     -10.873892      -295.8937
  11   2.0000      -8.790291      -239.1960
  12   2.0000      -6.576432      -178.9538
  13   2.0000      -6.575156      -178.9191
  14   2.0000      -6.573563      -178.8757
  15   2.0000      -1.508765       -41.0556
  16   2.0000      -1.344759       -36.5927
  17   2.0000      -1.230401       -33.4809
  18   2.0000      -1.116758       -30.3885
  19   2.0000      -1.092855       -29.7381
  20   2.0000      -0.970459       -26.4075
  21   2.0000      -0.967944       -26.3391
  22   2.0000      -0.834231       -22.7006
  23   2.0000      -0.808211       -21.9925
  24   2.0000      -0.762289       -20.7429
  25   2.0000      -0.705410       -19.1952
  26   2.0000      -0.683852       -18.6086
  27   2.0000      -0.667809       -18.1720
  28   2.0000      -0.655503       -17.8371
  29   2.0000      -0.637655       -17.3515
  30   2.0000      -0.625285       -17.0149
  31   2.0000      -0.596425       -16.2295
  32   2.0000      -0.577169       -15.7056
  33   2.0000      -0.572668       -15.5831
  34   2.0000      -0.554071       -15.0770
  35   2.0000      -0.548661       -14.9298
  36   2.0000      -0.501003       -13.6330
  37   2.0000      -0.481881       -13.1126
  38   2.0000      -0.459764       -12.5108
  39   2.0000      -0.446647       -12.1539
  40   2.0000      -0.436141       -11.8680
  41   2.0000      -0.425597       -11.5811
  42   2.0000      -0.414127       -11.2690
  43   2.0000      -0.354993        -9.6598
  44   2.0000      -0.342938        -9.3318
  45   0.0000       0.007489         0.2038
  46   0.0000       0.020824         0.5666
  47   0.0000       0.020869         0.5679
  48   0.0000       0.022838         0.6215
  49   0.0000       0.024879         0.6770

MULLIKEN ATOMIC CHARGES
-----------------------
   0 C :    0.894230
   1 C :   -0.762799
   2 H :    0.531581
   3 C :   -0.700399
   4 H :    0.492492
   5 C :    0.664869
   6 C :   -0.684666
   7 H :    0.471789
   8 C :   -0.826143
   9 H :    0.558135
  10 S :    2.003374
  11 O :   -0.939274
  12 O :   -0.934572
  13 N :   -0.573365
  14 H :    0.144379
  15 H :    0.152785
  16 F :   -0.492414
Sum of atomic charges:    0.0000000

LOEWDIN ATOMIC CHARGES
----------------------
   0 C :   -0.255602
   1 C :    0.155501
   2 H :   -0.190458
   3 C :    0.208235
   4 H :   -0.173724
   5 C :   -0.516736
   6 C :    0.208272
   7 H :   -0.173734
   8 C :    0.155494
   9 H :   -0.190422
  10 S :    0.119681
  11 O :    0.073434
  12 O :    0.073488
  13 N :    0.686290
  14 H :   -0.353129
  15 H :   -0.353116
  16 F :    0.526525

  Mayer bond orders larger than 0.100000
B(  0-C ,  1-C ) :   0.7053 B(  0-C ,  3-C ) :  -0.1696 B(  0-C ,  6-C ) :  -0.1618
B(  0-C ,  8-C ) :   0.6934 B(  0-C , 10-S ) :   0.9411 B(  0-C , 11-O ) :   0.2058
B(  0-C , 12-O ) :   0.1848 B(  1-C ,  2-H ) :   0.5946 B(  1-C ,  3-C ) :   1.3519
B(  1-C ,  8-C ) :   0.1959 B(  3-C ,  4-H ) :   0.6519 B(  3-C ,  5-C ) :   1.3540
B(  3-C ,  6-C ) :   0.1230 B(  3-C , 16-F ) :   0.1328 B(  4-H , 16-F ) :   0.1156
B(  5-C ,  6-C ) :   1.3392 B(  5-C , 16-F ) :   0.3404 B(  6-C ,  7-H ) :   0.6840
B(  6-C ,  8-C ) :   1.3506 B(  6-C , 16-F ) :   0.1283 B(  7-H , 16-F ) :   0.1209
B(  8-C ,  9-H ) :   0.5241 B( 10-S , 11-O ) :   1.2530 B( 10-S , 12-O ) :   1.2626
B( 10-S , 13-N ) :   0.9828 B( 13-N , 14-H ) :   0.9597 B( 13-N , 15-H ) :   0.9485

MP2 TOTAL ENERGY:     -934.495068035 Eh
Dispersion correction           -0.012673004
FINAL SINGLE POINT ENERGY      -934.507741038851

DIPOLE MOMENT
-------------
                                X             Y             Z
Electronic contribution:     -0.88249      -1.33192      -4.34223
Nuclear contribution   :      1.34638       2.84692       3.23371
                        -----------------------------------------
Total Dipole Moment    :      0.46389       1.51499      -1.10852
                        -----------------------------------------
Magnitude (a.u.)       :      1.93370
Magnitude (Debye)      :      4.91509

Rotational constants in cm-1:     0.085912     0.018246     0.016612
Rotational constants in MHz :  2575.589788   547.003851   498.012935

                             ****ORCA TERMINATED NORMALLY****
TOTAL RUN TIME: 0 days 0 hours 1 minutes 54 seconds 312 msec
