                         Program Version 5.0.3 -  RELEASE  -
|  1> !PAL8
|  2> !RI-DSD-PBEP86 D3BJ aug-cc-pVTZ aug-cc-pVTZ/C TightSCF
|  3> %maxcore 5000
|  4>
|  5> * xyz 0 1
|  6> C -1.5357430285  0.6191467636 -0.8258920717
|  7> C -2.6368237298  0.9661554397 -1.6110865807
|  8> F -3.822180827  1.1838467884 -1.0460453556
|  9> C -2.5408277956  1.1072961154 -2.9903652295
| 10> H -3.4304916058  1.3785262978 -3.5474176358
| 11> C -1.3126695159  0.9063065068 -3.6094415041
| 12> C -0.1840288679  0.5687816352 -2.863700549
| 13> H  0.7879480713  0.4116170571 -3.3170555591
| 14> C -0.3239324175  0.4412402014 -1.4949550712
| 15> F  0.7602370029  0.1126285487 -0.7680054387
| 16> S -1.5877351468  0.4822150308  0.9692517363
| 17> O -0.7043634491  1.5079453909  1.480229335
| 18> O -2.9751219532  0.3678634469  1.3577257649
| 19> N -0.8883845296 -0.9690767873  1.3392836578
| 20> H  0.0940922672 -1.0278902982  1.0865557888
| 21> H -1.2300204464  1.017426071 -4.6855841738
| 22> H -1.4414630282 -1.7695982083  1.0464638866
| 23> *
| 24>
| 25>                          ****END OF INPUT****

CARTESIAN COORDINATES (ANGSTROEM)
---------------------------------
  C     -1.535743    0.619147   -0.825892
  C     -2.636824    0.966155   -1.611087
  F     -3.822181    1.183847   -1.046045
  C     -2.540828    1.107296   -2.990365
  H     -3.430492    1.378526   -3.547418
  C     -1.312670    0.906307   -3.609442
  C     -0.184029    0.568782   -2.863701
  H      0.787948    0.411617   -3.317056
  C     -0.323932    0.441240   -1.494955
  F      0.760237    0.112629   -0.768005
  S     -1.587735    0.482215    0.969252
  O     -0.704363    1.507945    1.480229
  O     -2.975122    0.367863    1.357726
  N     -0.888385   -0.969077    1.339284
  H      0.094092   -1.027890    1.086556
  H     -1.230020    1.017426   -4.685584
  H     -1.441463   -1.769598    1.046464

 Total Charge           Charge          ....    0
 Multiplicity           Mult            ....    1
 Number of Electrons    NEL             ....   98
 Basis Dimension        Dim             ....  671

ORBITAL ENERGIES
----------------

  NO   OCC          E(Eh)            E(eV)
   0   2.0000     -91.054807     -2477.7273
   1   2.0000     -25.747284      -700.6192
   2   2.0000     -25.731553      -700.1912
   3   2.0000     -20.022612      -544.8430
   4   2.0000     -20.022321      -544.8351
   5   2.0000     -15.143028      -412.0628
   6   2.0000     -10.976134      -298.6758
   7   2.0000     -10.975104      -298.6478
   8   2.0000     -10.903698      -296.7047
   9   2.0000     -10.891538      -296.3738
  10   2.0000     -10.876719      -295.9706
  11   2.0000     -10.874331      -295.9056
  12   2.0000      -8.796510      -239.3652
  13   2.0000      -6.582861      -179.1288
  14   2.0000      -6.581668      -179.0963
  15   2.0000      -6.579599      -179.0400
  16   2.0000      -1.526045       -41.5258
  17   2.0000      -1.514213       -41.2038
  18   2.0000      -1.348359       -36.6907
  19   2.0000      -1.232258       -33.5314
  20   2.0000      -1.119937       -30.4750
  21   2.0000      -1.100897       -29.9569
  22   2.0000      -0.986235       -26.8368
  23   2.0000      -0.965913       -26.2838
  24   2.0000      -0.846633       -23.0381
  25   2.0000      -0.813320       -22.1316
  26   2.0000      -0.784636       -21.3510
  27   2.0000      -0.728731       -19.8298
  28   2.0000      -0.700812       -19.0701
  29   2.0000      -0.688567       -18.7369
  30   2.0000      -0.666980       -18.1495
  31   2.0000      -0.656256       -17.8576
  32   2.0000      -0.646297       -17.5866
  33   2.0000      -0.640635       -17.4326
  34   2.0000      -0.630020       -17.1437
  35   2.0000      -0.616179       -16.7671
  36   2.0000      -0.607730       -16.5372
  37   2.0000      -0.573109       -15.5951
  38   2.0000      -0.545402       -14.8411
  39   2.0000      -0.525473       -14.2989
  40   2.0000      -0.519507       -14.1365
  41   2.0000      -0.495922       -13.4947
  42   2.0000      -0.460925       -12.5424
  43   2.0000      -0.448717       -12.2102
  44   2.0000      -0.436248       -11.8709
  45   2.0000      -0.425637       -11.5822
  46   2.0000      -0.417181       -11.3521
  47   2.0000      -0.358377        -9.7519
  48   2.0000      -0.345372        -9.3981
  49   0.0000       0.007840         0.2133
  50   0.0000       0.011786         0.3207
  51   0.0000       0.017147         0.4666
  52   0.0000       0.024077         0.6552
  53   0.0000       0.037141         1.0107

MULLIKEN ATOMIC CHARGES
-----------------------
   0 C :    0.090942
   1 C :    0.521802
   2 F :   -0.496137
   3 C :   -0.797416
   4 H :    0.616537
   5 C :   -0.172994
   6 C :   -0.845230
   7 H :    0.585184
   8 C :    0.453579
   9 F :   -0.503845
  10 S :    2.211789
  11 O :   -0.952051
  12 O :   -0.898163
  13 N :   -0.586746
  14 H :    0.150648
  15 H :    0.489518
  16 H :    0.132584
Sum of atomic charges:   -0.0000000

LOEWDIN ATOMIC CHARGES
----------------------
   0 C :   -0.234970
   1 C :   -0.565755
   2 F :    0.547046
   3 C :    0.199927
   4 H :   -0.175819
   5 C :    0.193886
   6 C :    0.201085
   7 H :   -0.175454
   8 C :   -0.570544
   9 F :    0.549249
  10 S :    0.106195
  11 O :    0.071971
  12 O :    0.073815
  13 N :    0.684213
  14 H :   -0.391791
  15 H :   -0.167117
  16 H :   -0.345936

  Mayer bond orders larger than 0.100000
B(  0-C ,  1-C ) :   1.3471 B(  0-C ,  2-F ) :   0.2763 B(  0-C ,  8-C ) :   1.6036
B(  0-C ,  9-F ) :   0.1509 B(  0-C , 10-S ) :   0.7964 B(  0-C , 11-O ) :   0.1768
B(  0-C , 12-O ) :   0.1717 B(  0-C , 13-N ) :   0.1673 B(  1-C ,  2-F ) :   0.4751
B(  1-C ,  3-C ) :   1.1698 B(  1-C ,  5-C ) :  -0.1877 B(  1-C ,  8-C ) :  -0.3702
B(  1-C , 15-H ) :   0.1019 B(  2-F ,  3-C ) :   0.1081 B(  3-C ,  4-H ) :   0.3491
B(  3-C ,  5-C ) :   1.1697 B(  3-C ,  6-C ) :   0.1965 B(  5-C ,  6-C ) :   1.1459
B(  5-C ,  8-C ) :  -0.2867 B(  5-C , 15-H ) :   0.7325 B(  6-C ,  7-H ) :   0.3874
B(  6-C ,  8-C ) :   1.1739 B(  8-C ,  9-F ) :   0.4857 B( 10-S , 11-O ) :   1.2614
B( 10-S , 12-O ) :   1.2849 B( 10-S , 13-N ) :   0.8984 B( 13-N , 14-H ) :   0.9663
B( 13-N , 16-H ) :   0.9735

MP2 TOTAL ENERGY:    -1033.636962208 Eh
Dispersion correction           -0.012876902
FINAL SINGLE POINT ENERGY     -1033.649839110276

DIPOLE MOMENT
-------------
                                X             Y             Z
Electronic contribution:     -1.46053       1.70201       3.12375
Nuclear contribution   :      2.16878      -2.83073      -5.51901
                        -----------------------------------------
Total Dipole Moment    :      0.70825      -1.12872      -2.39526
                        -----------------------------------------
Magnitude (a.u.)       :      2.74097
Magnitude (Debye)      :      6.96699

Rotational constants in cm-1:     0.042759     0.026838     0.018389
Rotational constants in MHz :  1281.895206   804.582171   551.292454

                             ****ORCA TERMINATED NORMALLY****
TOTAL RUN TIME: 0 days 0 hours 2 minutes 14 seconds 855 msec
