                         Program Version 5.0.3 -  RELEASE  -
|  1> !PAL8
|  2> !RI-DSD-PBEP86 D3BJ aug-cc-pVTZ aug-cc-pVTZ/C TightSCF
|  3> %maxcore 5000
|  4>
|  5> * xyz 0 1
|  6> C -1.5327396004  0.711562787 -0.7859701581
|  7> C -2.6706993894  0.891370744 -1.5708553281
|  8> F -3.8829828807  0.9820363862 -1.0475301944
|  9> C -2.5712048098  0.9731857846 -2.957847442
| 10> F -3.6624385179  1.1461282963 -3.6941777078
| 11> C -1.3331641573  0.8691211862 -3.5753256124
| 12> C -0.1867503196  0.6819577738 -2.8100358408
| 13> F  0.9997308451  0.5851487943 -3.398977193
| 14> C -0.3030497298  0.5986140897 -1.4328350312
| 15> F  0.8135654581  0.4227991606 -0.7198297938
| 16> S -1.592528369  0.5267235429  1.0116572317
| 17> O -2.8864696728  1.0027008541  1.4388627525
| 18> O -1.096719579 -0.8023627828  1.2868582037
| 19> N -0.4837134585  1.5824468991  1.6164435888
| 20> H -0.7378159898  2.5604934714  1.5133344715
| 21> F -1.2404241149  0.9491055791 -4.8939571403
| 22> H  0.4812372858  1.3632424337  1.3864651938
| 23> *
| 24>
| 25>                          ****END OF INPUT****

CARTESIAN COORDINATES (ANGSTROEM)
---------------------------------
  C     -1.532740    0.711563   -0.785970
  C     -2.670699    0.891371   -1.570855
  F     -3.882983    0.982036   -1.047530
  C     -2.571205    0.973186   -2.957847
  F     -3.662439    1.146128   -3.694178
  C     -1.333164    0.869121   -3.575326
  C     -0.186750    0.681958   -2.810036
  F      0.999731    0.585149   -3.398977
  C     -0.303050    0.598614   -1.432835
  F      0.813565    0.422799   -0.719830
  S     -1.592528    0.526724    1.011657
  O     -2.886470    1.002701    1.438863
  O     -1.096720   -0.802363    1.286858
  N     -0.483713    1.582447    1.616444
  H     -0.737816    2.560493    1.513334
  F     -1.240424    0.949106   -4.893957
  H      0.481237    1.363242    1.386465

 Total Charge           Charge          ....    0
 Multiplicity           Mult            ....    1
 Number of Electrons    NEL             ....  122
 Basis Dimension        Dim             ....  740

ORBITAL ENERGIES
----------------

  NO   OCC          E(Eh)            E(eV)
   0   2.0000     -91.073505     -2478.2361
   1   2.0000     -25.771737      -701.2846
   2   2.0000     -25.769998      -701.2373
   3   2.0000     -25.764744      -701.0943
   4   2.0000     -25.760888      -700.9894
   5   2.0000     -25.755795      -700.8508
   6   2.0000     -20.039980      -545.3156
   7   2.0000     -20.039700      -545.3079
   8   2.0000     -15.159578      -412.5131
   9   2.0000     -11.001322      -299.3612
  10   2.0000     -11.000775      -299.3463
  11   2.0000     -11.000659      -299.3431
  12   2.0000     -10.990313      -299.0616
  13   2.0000     -10.987871      -298.9952
  14   2.0000     -10.929960      -297.4193
  15   2.0000      -8.814894      -239.8655
  16   2.0000      -6.601279      -179.6299
  17   2.0000      -6.600215      -179.6010
  18   2.0000      -6.597909      -179.5382
  19   2.0000      -1.559838       -42.4453
  20   2.0000      -1.553523       -42.2735
  21   2.0000      -1.545704       -42.0607
  22   2.0000      -1.537662       -41.8419
  23   2.0000      -1.530979       -41.6601
  24   2.0000      -1.366817       -37.1930
  25   2.0000      -1.250614       -34.0309
  26   2.0000      -1.139114       -30.9969
  27   2.0000      -1.132045       -30.8045
  28   2.0000      -1.012801       -27.5597
  29   2.0000      -0.995313       -27.0838
  30   2.0000      -0.884513       -24.0688
  31   2.0000      -0.856380       -23.3033
  32   2.0000      -0.813902       -22.1474
  33   2.0000      -0.777357       -21.1530
  34   2.0000      -0.770086       -20.9551
  35   2.0000      -0.750730       -20.4284
  36   2.0000      -0.714042       -19.4301
  37   2.0000      -0.711306       -19.3556
  38   2.0000      -0.704911       -19.1816
  39   2.0000      -0.699869       -19.0444
  40   2.0000      -0.691244       -18.8097
  41   2.0000      -0.682660       -18.5761
  42   2.0000      -0.678577       -18.4650
  43   2.0000      -0.669668       -18.2226
  44   2.0000      -0.653006       -17.7692
  45   2.0000      -0.646267       -17.5858
  46   2.0000      -0.638257       -17.3678
  47   2.0000      -0.628144       -17.0927
  48   2.0000      -0.624355       -16.9896
  49   2.0000      -0.594360       -16.1734
  50   2.0000      -0.582316       -15.8456
  51   2.0000      -0.579230       -15.7617
  52   2.0000      -0.546566       -14.8728
  53   2.0000      -0.508383       -13.8338
  54   2.0000      -0.478933       -13.0324
  55   2.0000      -0.464857       -12.6494
  56   2.0000      -0.450797       -12.2668
  57   2.0000      -0.443157       -12.0589
  58   2.0000      -0.437290       -11.8993
  59   2.0000      -0.373367       -10.1598
  60   2.0000      -0.361163        -9.8277
  61   0.0000      -0.000374        -0.0102
  62   0.0000       0.002279         0.0620
  63   0.0000       0.021253         0.5783
  64   0.0000       0.031328         0.8525
  65   0.0000       0.032479         0.8838

MULLIKEN ATOMIC CHARGES
-----------------------
   0 C :    0.078998
   1 C :    0.421374
   2 F :   -0.456023
   3 C :    0.383351
   4 F :   -0.427228
   5 C :    0.496592
   6 C :    0.414915
   7 F :   -0.412140
   8 C :    0.329910
   9 F :   -0.468630
  10 S :    2.200414
  11 O :   -0.894213
  12 O :   -0.950831
  13 N :   -0.586929
  14 H :    0.134822
  15 F :   -0.423635
  16 H :    0.159256
Sum of atomic charges:    0.0000000

LOEWDIN ATOMIC CHARGES
----------------------
   0 C :   -0.246113
   1 C :   -0.580693
   2 F :    0.563073
   3 C :   -0.541687
   4 F :    0.555639
   5 C :   -0.541349
   6 C :   -0.540605
   7 F :    0.554239
   8 C :   -0.589491
   9 F :    0.563936
  10 S :    0.109968
  11 O :    0.081612
  12 O :    0.079897
  13 N :    0.685250
  14 H :   -0.340686
  15 F :    0.565854
  16 H :   -0.378844

  Mayer bond orders larger than 0.100000
B(  0-C ,  1-C ) :   1.1573 B(  0-C ,  2-F ) :   0.2897 B(  0-C ,  8-C ) :   1.2226
B(  0-C ,  9-F ) :   0.2204 B(  0-C , 10-S ) :   0.8317 B(  0-C , 11-O ) :   0.1773
B(  0-C , 12-O ) :   0.1731 B(  0-C , 13-N ) :   0.1918 B(  1-C ,  2-F ) :   0.3753
B(  1-C ,  3-C ) :   1.2067 B(  1-C ,  4-F ) :   0.2235 B(  1-C ,  6-C ) :   0.1399
B(  1-C ,  8-C ) :  -0.2285 B(  2-F ,  4-F ) :   0.1122 B(  3-C ,  4-F ) :   0.2314
B(  3-C ,  5-C ) :   1.2390 B(  3-C ,  8-C ) :   0.1076 B(  3-C , 15-F ) :   0.1834
B(  4-F ,  5-C ) :   0.1324 B(  4-F , 15-F ) :   0.1334 B(  5-C ,  6-C ) :   1.1939
B(  5-C ,  7-F ) :   0.1224 B(  5-C , 15-F ) :   0.2553 B(  6-C ,  7-F ) :   0.2067
B(  6-C ,  8-C ) :   1.2011 B(  6-C , 15-F ) :   0.1679 B(  7-F ,  8-C ) :   0.2648
B(  7-F ,  9-F ) :   0.1099 B(  7-F , 15-F ) :   0.1278 B(  8-C ,  9-F ) :   0.3709
B( 10-S , 11-O ) :   1.3027 B( 10-S , 12-O ) :   1.2732 B( 10-S , 13-N ) :   0.9163
B( 12-O , 13-N ) :   0.1053 B( 13-N , 14-H ) :   0.9750 B( 13-N , 16-H ) :   0.9616

MP2 TOTAL ENERGY:    -1331.070238019 Eh
Dispersion correction           -0.013289044
FINAL SINGLE POINT ENERGY     -1331.083527062719

DIPOLE MOMENT
-------------
                                X             Y             Z
Electronic contribution:     -1.18498      -0.70619     -12.65215
Nuclear contribution   :      2.22527       1.90207      11.95192
                        -----------------------------------------
Total Dipole Moment    :      1.04029       1.19589      -0.70023
                        -----------------------------------------
Magnitude (a.u.)       :      1.73282
Magnitude (Debye)      :      4.40449

Rotational constants in cm-1:     0.028189     0.014510     0.010189
Rotational constants in MHz :   845.092464   434.987788   305.461275

                             ****ORCA TERMINATED NORMALLY****
TOTAL RUN TIME: 0 days 0 hours 3 minutes 6 seconds 230 msec
