                         Program Version 5.0.3 -  RELEASE  -
|  1> !PAL8
|  2> !RI-DSD-PBEP86 D3BJ aug-cc-pVTZ aug-cc-pVTZ/C TightSCF
|  3> %maxcore 3000
|  4>
|  5>
|  6> * xyz 0 1
|  7> C -1.3033858151  0.7775946367 -0.9097555986
|  8> C -2.4851743869  0.941402937 -1.6381501548
|  9> H -3.4378839937  0.9869473916 -1.1184217923
| 10> C -2.4214407972  1.0744117413 -3.0140118022
| 11> H -3.3162781281  1.2126174676 -3.6118969538
| 12> C -1.1790660006  1.0501676218 -3.6665845451
| 13> O -1.2232372824  1.190107164 -5.0109262848
| 14> C  0.000808352  0.8981983952 -2.9307304028
| 15> H  0.969265988  0.8955692642 -3.4165183152
| 16> C -0.0683903527  0.7617286188 -1.5447291313
| 17> H  0.8387537935  0.6662737263 -0.9550204289
| 18> S -1.3845957259  0.5618033223  0.8538892738
| 19> O -0.0781860394  0.8960900885  1.3938692513
| 20> O -2.6155426789  1.1810947983  1.3128060248
| 21> N -1.5787872188 -1.0696908392  1.1472462522
| 22> H -0.7828790136 -1.6186292304  0.8323007429
| 23> H -2.4611522367 -1.4262532423  0.7889487331
| 24> C  0.000011096  1.1920193211 -5.7223295761
| 25> H -0.2655636454  1.3171337808 -6.7712468292
| 26> H  0.5335617192  0.2437435215 -5.5892938406
| 27> H  0.6384583663  2.0238645148 -5.403421622
| 28> *
| 29>
| 30>                          ****END OF INPUT****

CARTESIAN COORDINATES (ANGSTROEM)
---------------------------------
  C     -1.303386    0.777595   -0.909756
  C     -2.485174    0.941403   -1.638150
  H     -3.437884    0.986947   -1.118422
  C     -2.421441    1.074412   -3.014012
  H     -3.316278    1.212617   -3.611897
  C     -1.179066    1.050168   -3.666585
  O     -1.223237    1.190107   -5.010926
  C      0.000808    0.898198   -2.930730
  H      0.969266    0.895569   -3.416518
  C     -0.068390    0.761729   -1.544729
  H      0.838754    0.666274   -0.955020
  S     -1.384596    0.561803    0.853889
  O     -0.078186    0.896090    1.393869
  O     -2.615543    1.181095    1.312806
  N     -1.578787   -1.069691    1.147246
  H     -0.782879   -1.618629    0.832301
  H     -2.461152   -1.426253    0.788949
  C      0.000011    1.192019   -5.722330
  H     -0.265564    1.317134   -6.771247
  H      0.533562    0.243744   -5.589294
  H      0.638458    2.023865   -5.403422

 Total Charge           Charge          ....    0
 Multiplicity           Mult            ....    1
 Number of Electrons    NEL             ....   98
 Basis Dimension        Dim             ....  763

ORBITAL ENERGIES
----------------

  NO   OCC          E(Eh)            E(eV)
   0   2.0000     -91.037457     -2477.2551
   1   2.0000     -20.077466      -546.3356
   2   2.0000     -20.012722      -544.5739
   3   2.0000     -20.012393      -544.5649
   4   2.0000     -15.134525      -411.8314
   5   2.0000     -10.930411      -297.4316
   6   2.0000     -10.902700      -296.6775
   7   2.0000     -10.875334      -295.9329
   8   2.0000     -10.872974      -295.8687
   9   2.0000     -10.871045      -295.8162
  10   2.0000     -10.859742      -295.5086
  11   2.0000     -10.855773      -295.4006
  12   2.0000      -8.780336      -238.9251
  13   2.0000      -6.566495      -178.6834
  14   2.0000      -6.565098      -178.6454
  15   2.0000      -6.563639      -178.6057
  16   2.0000      -1.334633       -36.3172
  17   2.0000      -1.316318       -35.8188
  18   2.0000      -1.220400       -33.2088
  19   2.0000      -1.107064       -30.1248
  20   2.0000      -1.075362       -29.2621
  21   2.0000      -0.963649       -26.2222
  22   2.0000      -0.952566       -25.9206
  23   2.0000      -0.886773       -24.1303
  24   2.0000      -0.810330       -22.0502
  25   2.0000      -0.783627       -21.3236
  26   2.0000      -0.740300       -20.1446
  27   2.0000      -0.689172       -18.7533
  28   2.0000      -0.662074       -18.0160
  29   2.0000      -0.656172       -17.8553
  30   2.0000      -0.631158       -17.1747
  31   2.0000      -0.614498       -16.7213
  32   2.0000      -0.612451       -16.6656
  33   2.0000      -0.587539       -15.9877
  34   2.0000      -0.565321       -15.3832
  35   2.0000      -0.558402       -15.1949
  36   2.0000      -0.543523       -14.7900
  37   2.0000      -0.533585       -14.5196
  38   2.0000      -0.504181       -13.7195
  39   2.0000      -0.489617       -13.3232
  40   2.0000      -0.457564       -12.4509
  41   2.0000      -0.452851       -12.3227
  42   2.0000      -0.449943       -12.2436
  43   2.0000      -0.437079       -11.8935
  44   2.0000      -0.419322       -11.4103
  45   2.0000      -0.416013       -11.3203
  46   2.0000      -0.404452       -11.0057
  47   2.0000      -0.342816        -9.3285
  48   2.0000      -0.313406        -8.5282
  49   0.0000       0.008408         0.2288
  50   0.0000       0.016339         0.4446
  51   0.0000       0.022502         0.6123
  52   0.0000       0.030873         0.8401
  53   0.0000       0.033248         0.9047

MULLIKEN ATOMIC CHARGES
-----------------------
   0 C :    0.874188
   1 C :   -0.771467
   2 H :    0.497093
   3 C :   -0.832777
   4 H :    0.533386
   5 C :    1.041073
   6 O :   -0.695646
   7 C :   -0.359540
   8 H :    0.372903
   9 C :   -1.007458
  10 H :    0.407129
  11 S :    1.967114
  12 O :   -0.947527
  13 O :   -0.951847
  14 N :   -0.592015
  15 H :    0.148805
  16 H :    0.146837
  17 C :   -0.935020
  18 H :    0.381035
  19 H :    0.360121
  20 H :    0.363613
Sum of atomic charges:   -0.0000000

LOEWDIN ATOMIC CHARGES
----------------------
   0 C :   -0.261773
   1 C :    0.155276
   2 H :   -0.188769
   3 C :    0.221649
   4 H :   -0.173467
   5 C :   -0.382691
   6 O :    0.590732
   7 C :    0.217933
   8 H :   -0.200276
   9 C :    0.157959
  10 H :   -0.191449
  11 S :    0.116250
  12 O :    0.070124
  13 O :    0.069329
  14 N :    0.685243
  15 H :   -0.356091
  16 H :   -0.356500
  17 C :    0.340630
  18 H :   -0.175004
  19 H :   -0.169914
  20 H :   -0.169189

  Mayer bond orders larger than 0.100000
B(  0-C ,  1-C ) :   0.7692 B(  0-C ,  9-C ) :   0.7215 B(  0-C , 11-S ) :   0.9127
B(  0-C , 12-O ) :   0.1528 B(  0-C , 13-O ) :   0.2107 B(  1-C ,  2-H ) :   0.6284
B(  1-C ,  3-C ) :   1.4021 B(  1-C ,  5-C ) :  -0.1255 B(  3-C ,  4-H ) :   0.6337
B(  3-C ,  5-C ) :   0.9125 B(  3-C ,  6-O ) :   0.2627 B(  5-C ,  6-O ) :   0.5139
B(  5-C ,  7-C ) :   1.1496 B(  6-O ,  7-C ) :  -0.2821 B(  6-O , 17-C ) :   1.0211
B(  7-C ,  8-H ) :   0.8668 B(  7-C ,  9-C ) :   1.1311 B(  9-C , 10-H ) :   0.8146
B( 11-S , 12-O ) :   1.2832 B( 11-S , 13-O ) :   1.2313 B( 11-S , 14-N ) :   0.9638
B( 14-N , 15-H ) :   0.9538 B( 14-N , 16-H ) :   0.9513 B( 17-C , 18-H ) :   0.9033
B( 17-C , 19-H ) :   0.8693 B( 17-C , 20-H ) :   0.8762

MP2 TOTAL ENERGY:     -949.724452904 Eh
Dispersion correction           -0.014713887
FINAL SINGLE POINT ENERGY      -949.739166791556

DIPOLE MOMENT
-------------
                                X             Y             Z
Electronic contribution:     -2.89267       1.10042       9.86311
Nuclear contribution   :      3.36166      -2.27093     -12.33372
                        -----------------------------------------
Total Dipole Moment    :      0.46899      -1.17052      -2.47061
                        -----------------------------------------
Magnitude (a.u.)       :      2.77380
Magnitude (Debye)      :      7.05044

Rotational constants in cm-1:     0.079588     0.013801     0.012727
Rotational constants in MHz :  2385.975087   413.730606   381.538174

                             ****ORCA TERMINATED NORMALLY****
TOTAL RUN TIME: 0 days 0 hours 2 minutes 53 seconds 607 msec
